Created with TaichiMD

1000 atoms
990 bonds
  0 angles
  0 dihedrals
  0 impropers

1 atom types
1 bond types
0 angle types
0 dihedral types
0 improper types

-80.00000  80.00000 xlo xhi
-80.00000  80.00000 ylo yhi
-80.00000  80.00000 zlo zhi

Masses

1 10.0000

Atoms

  1 0 1  0.000000 74.693985 14.481940 91.470154
  2 0 1  0.000000 74.076340 12.438422 91.337830
  3 0 1  0.000000 73.678322 12.241685 90.110527
  4 0 1  0.000000 74.787804 10.979486 89.828453
  5 0 1  0.000000 75.317879  9.537011 90.825920
  6 0 1  0.000000 75.089394  8.134401 89.866127
  7 0 1  0.000000 73.516319  8.235756 88.952713
  8 0 1  0.000000 75.079216  8.079547 88.324677
  9 0 1  0.000000 74.604431  7.591111 86.447571
 10 0 1  0.000000 74.742989  7.477695 84.972534
 11 0 1  0.000000 73.443916  8.144861 84.975914
 12 0 1  0.000000 74.109688  8.769011 84.286346
 13 0 1  0.000000 74.145241  9.428332 82.490898
 14 0 1  0.000000 74.419136  8.201981 81.740578
 15 0 1  0.000000 72.931000  8.317727 82.142532
 16 0 1  0.000000 73.459373  8.507759 80.551964
 17 0 1  0.000000 73.353134  7.443026 79.498444
 18 0 1  0.000000 73.507545  8.021339 77.543663
 19 0 1  0.000000 72.657219  8.108973 78.680023
 20 0 1  0.000000 72.272858  9.045302 77.293167
 21 0 1  0.000000 72.054550  7.930905 76.173759
 22 0 1  0.000000 72.113708  7.099970 75.072548
 23 0 1  0.000000 72.308273  5.397002 75.517853
 24 0 1  0.000000 73.066505  4.819764 76.941162
 25 0 1  0.000000 74.283981  4.746114 75.277000
 26 0 1  0.000000 75.400192  5.341356 74.623627
 27 0 1  0.000000 76.392921  5.658916 75.342239
 28 0 1  0.000000 77.321922  5.390748 73.248001
 29 0 1  0.000000 78.829643  5.835320 73.600914
 30 0 1  0.000000 79.436470  5.647391 74.454788
 31 0 1  0.000000 80.063911  7.278304 73.724739
 32 0 1  0.000000 79.572769  8.262343 73.666893
 33 0 1  0.000000 81.458275  8.446776 74.825150
 34 0 1  0.000000 81.920013  8.618476 76.368851
 35 0 1  0.000000 82.242569  9.810494 76.316277
 36 0 1  0.000000 82.289307 10.403163 77.819183
 37 0 1  0.000000 83.896492 11.884651 78.399849
 38 0 1  0.000000 84.794952 12.828535 77.354012
 39 0 1  0.000000 85.812218 13.529689 78.537872
 40 0 1  0.000000 86.923241 14.520035 77.829185
 41 0 1  0.000000 88.036125 14.294898 77.011566
 42 0 1  0.000000 86.632957 15.639743 76.943176
 43 0 1  0.000000 85.385696 16.329573 77.741432
 44 0 1  0.000000 83.939636 17.227295 77.218826
 45 0 1  0.000000 84.655006 16.878157 78.721077
 46 0 1  0.000000 83.231812 17.910208 78.485733
 47 0 1  0.000000 81.593147 17.842840 79.586372
 48 0 1  0.000000 81.305916 15.716850 80.384026
 49 0 1  0.000000 80.511520 15.721855 78.348991
 50 0 1  0.000000 79.671951 15.731905 76.868263
 51 0 1  0.000000 81.049362 16.747313 76.415298
 52 0 1  0.000000 80.408150 17.920647 76.329552
 53 0 1  0.000000 80.365181 19.098606 75.885727
 54 0 1  0.000000 81.231522 18.856920 74.064781
 55 0 1  0.000000 81.154770 19.828680 72.485878
 56 0 1  0.000000 80.782227 21.094797 71.385223
 57 0 1  0.000000 81.841530 20.681881 69.846642
 58 0 1  0.000000 81.145798 21.837749 70.093689
 59 0 1  0.000000 80.827988 21.996288 68.606827
 60 0 1  0.000000 81.488365 23.167351 67.504181
 61 0 1  0.000000 81.335327 22.850407 65.267685
 62 0 1  0.000000 80.746605 22.157364 64.144844
 63 0 1  0.000000 79.853737 22.350296 65.503334
 64 0 1  0.000000 78.209679 22.813410 65.645691
 65 0 1  0.000000 76.823692 22.335138 65.272324
 66 0 1  0.000000 76.835449 22.646423 63.650951
 67 0 1  0.000000 75.429199 23.041935 61.834862
 68 0 1  0.000000 75.146454 22.055056 60.454578
 69 0 1  0.000000 74.293266 22.580158 61.971649
 70 0 1  0.000000 72.382309 22.106133 61.627243
 71 0 1  0.000000 72.795189 21.730148 59.748493
 72 0 1  0.000000 72.312920 23.655537 59.819767
 73 0 1  0.000000 71.212013 23.948460 58.260159
 74 0 1  0.000000 70.992424 23.466221 56.814533
 75 0 1  0.000000 69.824242 23.848801 57.481251
 76 0 1  0.000000 69.514191 24.663670 56.321964
 77 0 1  0.000000 70.306908 26.039829 55.571423
 78 0 1  0.000000 71.245590 27.439421 54.816963
 79 0 1  0.000000 71.898148 29.417826 55.075924
 80 0 1  0.000000 72.544312 29.442497 53.260571
 81 0 1  0.000000 73.348274 30.901897 51.526707
 82 0 1  0.000000 74.228127 29.901556 51.023438
 83 0 1  0.000000 74.200180 30.883547 49.876160
 84 0 1  0.000000 75.879395 30.491037 49.891125
 85 0 1  0.000000 76.473732 29.207138 48.855885
 86 0 1  0.000000 76.600639 30.610359 47.734661
 87 0 1  0.000000 77.969421 31.373732 49.038727
 88 0 1  0.000000 79.156242 33.010689 49.412102
 89 0 1  0.000000 79.637741 34.042545 49.335194
 90 0 1  0.000000 79.144936 35.725464 49.430267
 91 0 1  0.000000 78.984802 36.176834 50.608219
 92 0 1  0.000000 80.097275 37.033451 51.825520
 93 0 1  0.000000 80.403076 36.171730 53.332069
 94 0 1  0.000000 79.400940 37.087643 53.975967
 95 0 1  0.000000 79.686638 38.848915 55.042164
 96 0 1  0.000000 80.411568 38.805595 56.279522
 97 0 1  0.000000 81.203026 36.830379 56.353935
 98 0 1  0.000000 83.076515 36.805138 56.652107
 99 0 1  0.000000 83.074791 35.642220 56.868015
100 0 1  0.000000 82.872017 36.501476 55.472618
101 1 1  0.000000 67.623016 19.812326 65.114754
102 1 1  0.000000 67.319283 21.217737 65.553429
103 1 1  0.000000 68.499390 20.605860 66.328110
104 1 1  0.000000 67.788879 22.800955 66.184425
105 1 1  0.000000 68.548782 24.325739 66.599396
106 1 1  0.000000 69.854935 23.601841 66.622131
107 1 1  0.000000 70.707954 23.564240 68.726395
108 1 1  0.000000 70.894081 25.869289 67.812279
109 1 1  0.000000 70.900795 27.011311 69.471466
110 1 1  0.000000 71.965759 25.983521 70.406975
111 1 1  0.000000 71.707314 27.437140 71.932045
112 1 1  0.000000 71.486351 28.168989 73.647255
113 1 1  0.000000 71.803406 27.534653 74.977036
114 1 1  0.000000 71.937775 27.816782 76.362831
115 1 1  0.000000 70.236862 28.411526 75.656883
116 1 1  0.000000 68.562035 28.878294 75.658592
117 1 1  0.000000 69.433044 29.729342 76.635132
118 1 1  0.000000 68.871727 31.079355 77.420975
119 1 1  0.000000 67.806458 30.872488 79.244469
120 1 1  0.000000 69.717819 31.547590 79.017136
121 1 1  0.000000 71.170403 32.408451 79.663612
122 1 1  0.000000 72.659523 31.918434 80.838387
123 1 1  0.000000 72.475883 31.314985 78.719254
124 1 1  0.000000 73.665474 31.888428 79.455322
125 1 1  0.000000 75.236382 31.589476 79.975067
126 1 1  0.000000 76.575104 31.857433 79.329514
127 1 1  0.000000 76.865242 31.291819 77.857979
128 1 1  0.000000 76.336861 31.771418 75.724091
129 1 1  0.000000 77.513542 30.700865 75.229149
130 1 1  0.000000 78.878784 30.358208 74.103729
131 1 1  0.000000 80.187096 30.885294 74.704124
132 1 1  0.000000 80.954552 29.608374 74.023407
133 1 1  0.000000 80.868561 28.671919 75.371849
134 1 1  0.000000 81.680016 29.503748 76.875084
135 1 1  0.000000 82.693710 28.362635 75.976273
136 1 1  0.000000 83.522057 27.915472 77.727966
137 1 1  0.000000 85.052185 28.072535 77.490005
138 1 1  0.000000 85.384621 28.678923 78.413460
139 1 1  0.000000 86.011909 29.977282 79.796471
140 1 1  0.000000 87.228127 28.940723 79.818993
141 1 1  0.000000 87.473625 29.741699 81.365463
142 1 1  0.000000 88.220955 29.260393 82.799217
143 1 1  0.000000 88.847847 28.437723 83.778488
144 1 1  0.000000 87.956253 27.748560 85.185379
145 1 1  0.000000 87.168732 27.970724 86.294411
146 1 1  0.000000 86.219711 26.925741 87.149925
147 1 1  0.000000 85.331757 27.313541 88.590759
148 1 1  0.000000 86.177994 28.596285 89.063416
149 1 1  0.000000 86.794891 27.583334 90.390564
150 1 1  0.000000 86.986183 27.338526 92.216385
151 1 1  0.000000 86.110519 27.919611 93.466339
152 1 1  0.000000 85.271179 26.401987 93.545135
153 1 1  0.000000 86.281677 25.847534 94.857452
154 1 1  0.000000 84.613785 26.284653 94.740982
155 1 1  0.000000 83.722725 25.076376 95.345505
156 1 1  0.000000 83.683624 24.055899 96.653625
157 1 1  0.000000 82.839066 24.457405 98.541100
158 1 1  0.000000 82.771202 24.010942 96.764877
159 1 1  0.000000 80.988235 23.390486 97.321945
160 1 1  0.000000 80.169899 21.942932 96.738441
161 1 1  0.000000 79.025909 23.180702 98.159096
162 1 1  0.000000 79.898315 23.198990 100.253365
163 1 1  0.000000 78.930367 23.733221 101.258522
164 1 1  0.000000 77.219612 23.974712 101.370300
165 1 1  0.000000 76.742630 23.509272 103.202126
166 1 1  0.000000 75.135681 23.880033 104.071159
167 1 1  0.000000 73.191589 24.172129 104.905136
168 1 1  0.000000 72.084473 23.759182 104.867516
169 1 1  0.000000 71.514610 23.131104 105.634789
170 1 1  0.000000 70.319702 24.054138 106.214844
171 1 1  0.000000 69.434547 23.714163 108.222404
172 1 1  0.000000 68.590096 23.450815 107.045013
173 1 1  0.000000 69.546043 21.627125 108.173386
174 1 1  0.000000 68.528381 20.241062 108.314644
175 1 1  0.000000 66.897514 20.148048 108.885269
176 1 1  0.000000 66.087044 21.479691 107.889130
177 1 1  0.000000 64.894882 21.045557 108.923203
178 1 1  0.000000 63.681004 20.360975 109.696648
179 1 1  0.000000 61.747715 20.111296 109.838425
180 1 1  0.000000 60.890373 18.627323 109.996513
181 1 1  0.000000 59.896648 17.900402 111.152382
182 1 1  0.000000 59.429142 18.432915 109.760269
183 1 1  0.000000 58.369747 17.582733 108.504051
184 1 1  0.000000 56.907021 18.377901 109.216148
185 1 1  0.000000 55.506241 17.977100 109.861305
186 1 1  0.000000 54.100952 18.091936 110.370178
187 1 1  0.000000 53.500134 18.280951 108.929085
188 1 1  0.000000 52.965805 18.439856 107.318611
189 1 1  0.000000 51.402790 17.460590 106.974388
190 1 1  0.000000 52.071678 15.828134 107.242561
191 1 1  0.000000 50.520081 14.964871 108.059296
192 1 1  0.000000 50.027874 13.696404 108.864761
193 1 1  0.000000 48.991985 14.602908 110.248833
194 1 1  0.000000 48.691319 15.210786 111.953438
195 1 1  0.000000 47.842339 14.837519 113.595955
196 1 1  0.000000 46.476006 14.502707 113.741234
197 1 1  0.000000 45.426796 14.504179 114.716599
198 1 1  0.000000 44.480949 15.940713 113.879257
199 1 1  0.000000 43.223907 15.243435 114.421730
200 1 1  0.000000 42.462418 14.031287 113.139816
201 2 1  0.000000 87.047157 51.996761 70.116341
202 2 1  0.000000 88.158646 52.061253 71.448166
203 2 1  0.000000 89.178040 52.607609 70.523514
204 2 1  0.000000 89.061340 54.649269 71.178009
205 2 1  0.000000 89.712723 55.620361 71.536865
206 2 1  0.000000 88.657646 54.863968 72.305237
207 2 1  0.000000 88.336731 54.670506 74.040001
208 2 1  0.000000 87.041077 53.219799 74.220924
209 2 1  0.000000 85.525513 53.583771 74.018349
210 2 1  0.000000 83.841080 53.253052 73.890030
211 2 1  0.000000 82.549347 53.775635 74.596153
212 2 1  0.000000 81.200752 53.951885 76.168488
213 2 1  0.000000 79.909599 52.818745 75.836739
214 2 1  0.000000 79.533310 54.284214 75.817734
215 2 1  0.000000 79.100418 55.456757 77.247452
216 2 1  0.000000 78.496490 56.075344 79.059944
217 2 1  0.000000 78.486214 55.344078 80.018745
218 2 1  0.000000 78.184189 53.507996 80.222145
219 2 1  0.000000 76.516388 53.222816 78.854439
220 2 1  0.000000 76.238892 52.203827 77.554245
221 2 1  0.000000 75.434349 54.058117 78.310211
222 2 1  0.000000 74.121353 53.156967 79.463928
223 2 1  0.000000 73.240807 53.867287 80.931473
224 2 1  0.000000 71.722633 52.859077 80.565147
225 2 1  0.000000 71.659256 52.174255 81.256828
226 2 1  0.000000 70.158638 51.535088 80.770233
227 2 1  0.000000 68.263542 52.746494 81.350739
228 2 1  0.000000 66.219681 51.825310 79.602470
229 2 1  0.000000 65.022873 52.215866 78.938690
230 2 1  0.000000 63.010513 52.521267 79.848869
231 2 1  0.000000 62.912830 50.797760 79.736069
232 2 1  0.000000 61.281021 51.713696 80.297302
233 2 1  0.000000 61.362774 50.426941 79.726143
234 2 1  0.000000 60.376366 49.308643 81.064346
235 2 1  0.000000 60.915630 47.985554 81.563278
236 2 1  0.000000 61.770298 46.697063 82.513596
237 2 1  0.000000 60.886734 45.488602 82.558182
238 2 1  0.000000 61.897789 46.089714 80.948875
239 2 1  0.000000 62.720863 44.501038 79.548393
240 2 1  0.000000 62.843102 46.467304 79.041176
241 2 1  0.000000 64.152313 45.955608 79.077324
242 2 1  0.000000 64.443504 47.528507 78.546989
243 2 1  0.000000 65.243935 46.644688 78.514511
244 2 1  0.000000 66.208244 46.435665 80.622643
245 2 1  0.000000 67.396149 45.164627 79.711906
246 2 1  0.000000 68.231682 44.284035 79.875725
247 2 1  0.000000 68.340866 43.034389 78.765396
248 2 1  0.000000 68.664948 41.488094 79.867554
249 2 1  0.000000 69.073845 41.958523 78.975128
250 2 1  0.000000 68.911942 40.795361 77.795708
251 2 1  0.000000 69.227104 39.580341 76.928612
252 2 1  0.000000 68.125557 39.313469 75.249306
253 2 1  0.000000 69.146042 40.737785 74.867409
254 2 1  0.000000 70.928993 41.540733 74.516846
255 2 1  0.000000 72.301491 40.755692 74.872581
256 2 1  0.000000 72.831429 39.868763 76.452187
257 2 1  0.000000 74.301277 40.634392 76.245743
258 2 1  0.000000 73.954659 39.221333 77.566109
259 2 1  0.000000 75.046547 38.794605 76.745735
260 2 1  0.000000 76.408798 39.055042 76.714905
261 2 1  0.000000 77.390564 38.210312 76.407478
262 2 1  0.000000 76.629852 38.404705 77.330795
263 2 1  0.000000 77.755814 38.069107 78.191353
264 2 1  0.000000 79.045364 38.042442 78.737053
265 2 1  0.000000 79.996033 36.775379 79.517807
266 2 1  0.000000 79.102211 36.887711 81.030815
267 2 1  0.000000 79.218498 36.896198 82.446899
268 2 1  0.000000 79.773888 38.088974 82.663445
269 2 1  0.000000 81.116951 38.702991 82.861969
270 2 1  0.000000 79.621376 39.551243 83.528313
271 2 1  0.000000 77.839325 39.934227 83.829399
272 2 1  0.000000 78.153778 41.140606 83.005020
273 2 1  0.000000 76.731079 41.077019 83.045601
274 2 1  0.000000 76.204323 41.237350 81.717216
275 2 1  0.000000 75.424568 42.373943 80.335617
276 2 1  0.000000 74.419579 43.177040 79.817856
277 2 1  0.000000 73.448044 44.510151 79.896194
278 2 1  0.000000 73.545120 44.216618 81.381500
279 2 1  0.000000 72.510887 43.755760 83.302574
280 2 1  0.000000 73.020660 42.538143 83.764809
281 2 1  0.000000 73.895378 41.420067 85.027702
282 2 1  0.000000 72.411522 41.591755 85.239601
283 2 1  0.000000 73.084557 41.540146 86.596390
284 2 1  0.000000 74.779861 41.869930 86.844238
285 2 1  0.000000 74.945953 43.922276 87.346153
286 2 1  0.000000 76.486603 44.025639 87.459541
287 2 1  0.000000 77.178818 44.329128 85.902023
288 2 1  0.000000 77.255554 45.687244 84.780785
289 2 1  0.000000 77.676476 47.109234 84.558151
290 2 1  0.000000 78.991264 47.196636 84.208221
291 2 1  0.000000 79.412880 47.002056 82.548729
292 2 1  0.000000 80.391548 47.482658 81.268578
293 2 1  0.000000 80.795097 48.272572 82.104652
294 2 1  0.000000 81.078751 49.705654 80.793129
295 2 1  0.000000 82.250580 49.767353 79.444946
296 2 1  0.000000 83.257988 50.192215 80.009796
297 2 1  0.000000 84.685692 50.839024 79.038605
298 2 1  0.000000 84.473862 52.148426 77.752419
299 2 1  0.000000 85.142044 52.237473 79.399963
300 2 1  0.000000 85.229668 53.851482 79.530296
301 3 1  0.000000 76.712700 65.377037 91.741837
302 3 1  0.000000 78.189346 64.740845 91.148338
303 3 1  0.000000 78.054764 65.611656 92.337845
304 3 1  0.000000 78.603912 64.318382 92.698196
305 3 1  0.000000 78.724998 63.794861 94.397758
306 3 1  0.000000 79.751778 64.489349 95.132706
307 3 1  0.000000 79.091278 64.545166 96.538445
308 3 1  0.000000 79.055664 65.472145 96.403748
309 3 1  0.000000 78.927048 66.806427 97.266739
310 3 1  0.000000 78.936729 67.933777 96.525528
311 3 1  0.000000 78.445724 69.759689 97.569046
312 3 1  0.000000 79.259109 71.235786 98.310455
313 3 1  0.000000 79.357719 72.300240 97.467735
314 3 1  0.000000 80.738190 71.722237 97.068672
315 3 1  0.000000 82.345184 71.540680 97.546654
316 3 1  0.000000 82.812103 70.879913 95.641083
317 3 1  0.000000 81.401863 70.089279 95.407280
318 3 1  0.000000 81.621208 68.803513 94.611755
319 3 1  0.000000 82.956902 69.298485 94.011635
320 3 1  0.000000 83.517097 68.050369 93.095413
321 3 1  0.000000 83.359726 67.652313 91.924179
322 3 1  0.000000 82.255127 68.424026 91.638023
323 3 1  0.000000 81.982941 69.409393 90.678337
324 3 1  0.000000 80.550201 68.314575 90.321259
325 3 1  0.000000 79.280304 69.789238 89.727257
326 3 1  0.000000 78.885078 71.097519 90.145752
327 3 1  0.000000 79.833527 70.617897 88.393723
328 3 1  0.000000 78.947655 69.834778 87.943779
329 3 1  0.000000 77.311241 68.174011 87.284096
330 3 1  0.000000 77.002411 67.171410 85.907837
331 3 1  0.000000 77.080269 67.563034 86.812027
332 3 1  0.000000 78.525780 65.724709 86.914078
333 3 1  0.000000 80.157738 64.398338 87.190720
334 3 1  0.000000 78.848892 63.479439 86.596840
335 3 1  0.000000 78.433784 62.031143 85.561256
336 3 1  0.000000 80.056885 61.990788 85.675980
337 3 1  0.000000 79.987137 62.956066 84.475914
338 3 1  0.000000 82.232269 62.094345 84.125496
339 3 1  0.000000 82.798561 63.174801 82.637695
340 3 1  0.000000 82.536201 61.483295 83.433266
341 3 1  0.000000 82.144394 60.005180 81.900764
342 3 1  0.000000 83.413620 58.582882 82.590660
343 3 1  0.000000 83.965652 58.791176 84.032837
344 3 1  0.000000 85.522499 58.736897 83.528824
345 3 1  0.000000 86.027016 58.474705 85.088593
346 3 1  0.000000 87.397552 57.114952 85.412361
347 3 1  0.000000 87.985611 58.000374 84.664688
348 3 1  0.000000 88.964317 58.093163 83.309486
349 3 1  0.000000 88.819275 57.174591 81.992378
350 3 1  0.000000 90.091789 57.707195 81.118843
351 3 1  0.000000 91.575531 58.547611 80.127251
352 3 1  0.000000 91.643272 60.095818 79.220062
353 3 1  0.000000 91.249321 62.006058 78.488327
354 3 1  0.000000 92.059418 62.468349 76.823753
355 3 1  0.000000 90.722908 61.529053 76.136993
356 3 1  0.000000 89.263725 62.171921 76.476845
357 3 1  0.000000 89.962387 61.441296 75.296524
358 3 1  0.000000 89.501671 61.462654 73.739174
359 3 1  0.000000 88.073654 61.111916 72.613579
360 3 1  0.000000 87.440262 60.960987 71.205261
361 3 1  0.000000 86.431679 61.934460 72.454842
362 3 1  0.000000 85.427559 62.188255 73.335258
363 3 1  0.000000 83.441925 62.427620 73.800766
364 3 1  0.000000 81.572861 62.545410 74.228340
365 3 1  0.000000 79.933273 63.281425 74.061653
366 3 1  0.000000 79.710114 62.957546 72.410347
367 3 1  0.000000 78.024002 63.687653 72.624397
368 3 1  0.000000 77.336319 62.470890 71.283745
369 3 1  0.000000 76.608879 62.433918 70.304947
370 3 1  0.000000 76.556839 64.405861 70.340523
371 3 1  0.000000 74.594597 64.158173 70.733269
372 3 1  0.000000 73.305557 63.948872 71.132080
373 3 1  0.000000 71.974388 62.938179 71.260239
374 3 1  0.000000 70.819725 64.345215 71.145782
375 3 1  0.000000 69.060204 64.433907 70.994659
376 3 1  0.000000 68.556320 63.001804 69.970993
377 3 1  0.000000 66.965828 63.698990 71.189598
378 3 1  0.000000 65.420647 64.670387 70.538300
379 3 1  0.000000 65.466103 65.331360 71.514549
380 3 1  0.000000 64.034653 64.986519 72.224686
381 3 1  0.000000 62.531235 65.459053 72.989922
382 3 1  0.000000 61.787540 65.239159 72.109299
383 3 1  0.000000 60.251339 66.153801 72.171875
384 3 1  0.000000 59.867310 67.886040 71.364288
385 3 1  0.000000 59.070858 68.656067 70.253883
386 3 1  0.000000 57.913383 68.768944 69.769371
387 3 1  0.000000 56.844048 68.669838 70.175591
388 3 1  0.000000 56.629314 70.057007 68.551674
389 3 1  0.000000 55.076435 71.106857 67.563858
390 3 1  0.000000 53.555367 72.193367 68.087898
391 3 1  0.000000 51.511097 71.260582 68.491051
392 3 1  0.000000 51.659931 70.852707 66.710068
393 3 1  0.000000 50.618137 69.248260 66.127609
394 3 1  0.000000 49.378242 68.382500 65.825256
395 3 1  0.000000 48.893627 66.893959 64.893463
396 3 1  0.000000 49.308781 67.665543 63.326439
397 3 1  0.000000 49.917751 68.545029 61.843475
398 3 1  0.000000 49.255451 70.004128 60.533215
399 3 1  0.000000 48.792931 70.037193 59.054638
400 3 1  0.000000 50.334084 71.046806 60.115124
401 4 1  0.000000 103.927094 71.022415 63.056931
402 4 1  0.000000 103.841042 71.177025 61.960537
403 4 1  0.000000 103.767365 72.351440 62.494972
404 4 1  0.000000 102.288971 72.934517 62.351906
405 4 1  0.000000 100.483742 72.719322 62.724201
406 4 1  0.000000 100.289902 71.216209 63.792591
407 4 1  0.000000 99.457664 71.964653 64.428467
408 4 1  0.000000 99.211189 73.020027 65.966759
409 4 1  0.000000 98.918434 73.218254 67.150070
410 4 1  0.000000 97.713669 72.785561 67.627663
411 4 1  0.000000 97.537910 72.742355 68.891571
412 4 1  0.000000 97.022919 73.364914 70.498428
413 4 1  0.000000 96.071602 72.548492 72.228447
414 4 1  0.000000 94.596825 72.872292 73.269829
415 4 1  0.000000 96.097237 72.704819 73.551193
416 4 1  0.000000 96.212837 73.926384 75.190941
417 4 1  0.000000 95.038383 72.811935 76.251930
418 4 1  0.000000 94.767708 72.647720 77.406670
419 4 1  0.000000 94.006851 73.961182 77.221161
420 4 1  0.000000 92.946304 75.173561 76.484985
421 4 1  0.000000 91.542572 75.078812 76.970505
422 4 1  0.000000 90.599449 76.490341 76.849503
423 4 1  0.000000 89.018158 76.317551 77.423164
424 4 1  0.000000 88.611153 75.562950 78.811417
425 4 1  0.000000 89.146111 74.898933 79.949913
426 4 1  0.000000 88.342613 73.978874 81.835770
427 4 1  0.000000 86.516884 74.967461 82.861488
428 4 1  0.000000 85.670067 73.655701 83.247459
429 4 1  0.000000 84.226089 74.888962 83.051613
430 4 1  0.000000 83.614594 75.899071 84.062576
431 4 1  0.000000 83.112862 77.322571 84.674736
432 4 1  0.000000 82.204697 78.560303 84.573936
433 4 1  0.000000 81.291260 79.287315 85.746460
434 4 1  0.000000 80.186852 80.902374 85.345520
435 4 1  0.000000 80.741302 81.454163 86.543968
436 4 1  0.000000 81.030678 82.840546 86.017014
437 4 1  0.000000 80.932228 83.425964 87.977234
438 4 1  0.000000 80.167130 82.271149 88.694290
439 4 1  0.000000 79.608269 82.483643 89.930122
440 4 1  0.000000 79.087173 83.601196 90.195145
441 4 1  0.000000 78.326317 83.992210 91.731628
442 4 1  0.000000 77.788651 85.055176 93.494186
443 4 1  0.000000 77.642639 84.276611 95.169785
444 4 1  0.000000 79.208969 82.937904 95.366081
445 4 1  0.000000 79.490044 82.199936 96.544556
446 4 1  0.000000 78.983177 81.415169 98.105484
447 4 1  0.000000 77.917198 80.738876 96.981590
448 4 1  0.000000 76.123215 80.550346 97.136040
449 4 1  0.000000 74.457565 78.937080 97.801346
450 4 1  0.000000 74.339294 79.062874 99.101852
451 4 1  0.000000 73.304581 78.850311 99.583313
452 4 1  0.000000 72.820610 78.412086 98.027687
453 4 1  0.000000 71.755310 77.079575 97.511215
454 4 1  0.000000 70.960922 76.959778 99.095573
455 4 1  0.000000 70.942390 76.336693 97.977806
456 4 1  0.000000 69.496407 76.055069 97.621185
457 4 1  0.000000 68.319984 74.805351 98.300072
458 4 1  0.000000 67.028236 74.816246 97.484322
459 4 1  0.000000 67.704079 74.934502 96.394508
460 4 1  0.000000 66.229134 73.800018 96.634094
461 4 1  0.000000 64.900276 74.188789 96.677116
462 4 1  0.000000 63.902031 74.723465 95.570915
463 4 1  0.000000 62.700920 74.068039 94.581833
464 4 1  0.000000 60.924931 74.573502 94.678207
465 4 1  0.000000 60.472668 74.665413 96.315353
466 4 1  0.000000 59.501858 76.292229 96.396332
467 4 1  0.000000 58.618935 75.773460 98.064980
468 4 1  0.000000 58.596989 75.711632 99.607430
469 4 1  0.000000 58.618877 74.313316 100.559036
470 4 1  0.000000 57.181450 73.333313 100.065796
471 4 1  0.000000 58.748627 72.079765 100.030800
472 4 1  0.000000 57.065350 71.408424 101.243484
473 4 1  0.000000 57.420895 69.440567 101.224182
474 4 1  0.000000 56.925663 68.410637 101.890114
475 4 1  0.000000 55.874989 66.601425 101.825188
476 4 1  0.000000 55.524288 64.697029 102.089851
477 4 1  0.000000 57.198124 63.982498 102.074707
478 4 1  0.000000 58.059151 64.879372 103.872864
479 4 1  0.000000 58.996567 64.247208 104.671150
480 4 1  0.000000 59.043377 65.473053 105.329559
481 4 1  0.000000 60.598412 66.558037 105.217484
482 4 1  0.000000 62.277805 66.362389 106.061905
483 4 1  0.000000 63.542702 67.508720 105.455765
484 4 1  0.000000 64.804787 67.257317 107.072594
485 4 1  0.000000 66.329384 66.558434 106.789925
486 4 1  0.000000 67.778793 67.565666 106.462639
487 4 1  0.000000 67.841904 69.410446 107.350403
488 4 1  0.000000 68.225815 70.151611 108.607437
489 4 1  0.000000 67.710175 70.875267 109.606049
490 4 1  0.000000 68.639732 71.861671 109.648994
491 4 1  0.000000 68.951241 71.515457 110.999390
492 4 1  0.000000 69.854691 72.125504 111.428551
493 4 1  0.000000 72.018257 72.834442 112.553459
494 4 1  0.000000 72.791374 71.851654 113.178055
495 4 1  0.000000 74.493835 71.251381 112.522026
496 4 1  0.000000 75.447441 70.277008 111.738060
497 4 1  0.000000 77.060394 70.809357 111.444283
498 4 1  0.000000 76.866150 72.004356 111.261322
499 4 1  0.000000 77.740875 72.741516 110.251030
500 4 1  0.000000 78.828644 72.294533 109.969154
501 5 1  0.000000 111.351944 87.992447 61.183186
502 5 1  0.000000 111.211113 88.889091 59.725666
503 5 1  0.000000 112.499306 88.963608 58.873238
504 5 1  0.000000 114.100792 88.206566 58.221252
505 5 1  0.000000 114.441521 89.555321 58.706154
506 5 1  0.000000 116.018524 89.905983 58.794647
507 5 1  0.000000 116.436577 88.992256 59.052910
508 5 1  0.000000 117.098038 89.563179 57.864098
509 5 1  0.000000 117.868538 88.702469 56.453064
510 5 1  0.000000 119.334167 89.851204 55.640335
511 5 1  0.000000 118.331955 90.713707 54.888912
512 5 1  0.000000 118.700706 91.741623 54.313259
513 5 1  0.000000 119.989304 92.857132 54.437748
514 5 1  0.000000 121.185318 93.264778 54.631447
515 5 1  0.000000 122.463882 92.829445 53.939129
516 5 1  0.000000 123.369469 92.875076 55.544189
517 5 1  0.000000 123.656052 91.584846 54.414242
518 5 1  0.000000 124.522339 90.579735 55.101292
519 5 1  0.000000 124.012764 89.749481 56.155235
520 5 1  0.000000 125.007462 88.812798 56.130428
521 5 1  0.000000 126.436340 89.005394 57.268826
522 5 1  0.000000 125.670662 89.809685 58.179474
523 5 1  0.000000 126.166061 89.558403 59.706623
524 5 1  0.000000 125.429665 88.930611 61.462357
525 5 1  0.000000 123.532845 88.849930 62.033569
526 5 1  0.000000 121.975372 88.821167 61.514568
527 5 1  0.000000 120.118141 88.848549 61.539650
528 5 1  0.000000 118.560997 87.830986 60.940228
529 5 1  0.000000 117.811150 86.021675 61.663551
530 5 1  0.000000 116.968025 86.713394 62.394951
531 5 1  0.000000 116.009674 86.446922 63.203918
532 5 1  0.000000 116.585625 85.159706 63.446625
533 5 1  0.000000 115.674973 84.621498 64.485878
534 5 1  0.000000 114.766510 85.146706 65.685944
535 5 1  0.000000 113.690071 84.625076 66.778885
536 5 1  0.000000 112.255775 84.304802 67.716354
537 5 1  0.000000 110.784119 84.852852 67.994034
538 5 1  0.000000 108.605179 84.478249 68.779480
539 5 1  0.000000 108.780190 86.484482 69.953651
540 5 1  0.000000 107.533455 86.337013 70.715897
541 5 1  0.000000 106.640030 88.150719 71.019035
542 5 1  0.000000 105.738052 86.643578 70.562889
543 5 1  0.000000 105.432999 86.319481 68.680519
544 5 1  0.000000 103.616158 85.519676 68.228302
545 5 1  0.000000 103.054237 83.770241 67.807632
546 5 1  0.000000 101.501968 84.588196 67.683144
547 5 1  0.000000 101.921295 84.445740 66.263916
548 5 1  0.000000 100.781631 83.598343 66.575920
549 5 1  0.000000 100.297066 83.117714 65.684685
550 5 1  0.000000 98.398758 83.244865 65.479050
551 5 1  0.000000 97.758865 81.710350 66.698845
552 5 1  0.000000 96.307907 81.711845 67.014023
553 5 1  0.000000 95.193184 80.568573 66.189850
554 5 1  0.000000 94.505264 80.859215 64.712151
555 5 1  0.000000 93.372528 80.172913 64.851654
556 5 1  0.000000 91.771973 80.779144 65.524406
557 5 1  0.000000 90.301193 81.069138 65.884766
558 5 1  0.000000 89.441147 80.136185 66.131401
559 5 1  0.000000 89.797066 79.300423 67.779991
560 5 1  0.000000 89.170776 80.181580 67.846886
561 5 1  0.000000 88.079247 80.553467 68.782394
562 5 1  0.000000 87.724693 81.430321 70.378708
563 5 1  0.000000 86.145386 80.349380 71.467529
564 5 1  0.000000 86.046501 81.643074 71.924568
565 5 1  0.000000 84.273865 81.392960 72.619034
566 5 1  0.000000 82.855675 81.388809 72.963264
567 5 1  0.000000 83.033539 82.171448 74.324333
568 5 1  0.000000 84.196243 83.196884 74.080894
569 5 1  0.000000 85.356773 84.964874 73.190804
570 5 1  0.000000 86.167534 85.154488 73.553291
571 5 1  0.000000 87.951736 85.311981 74.270798
572 5 1  0.000000 88.590157 85.469864 75.800774
573 5 1  0.000000 88.849884 84.539230 73.984337
574 5 1  0.000000 90.554459 84.134354 73.515221
575 5 1  0.000000 90.591484 82.563766 74.438721
576 5 1  0.000000 89.968559 81.098526 73.998489
577 5 1  0.000000 89.142540 80.503571 75.523697
578 5 1  0.000000 90.147865 81.178947 75.737770
579 5 1  0.000000 89.939301 82.645134 77.562935
580 5 1  0.000000 89.067070 81.551796 77.460808
581 5 1  0.000000 87.912910 81.653793 78.447556
582 5 1  0.000000 86.493851 82.040108 79.133804
583 5 1  0.000000 86.002014 83.282959 80.292953
584 5 1  0.000000 85.454239 84.179672 81.462151
585 5 1  0.000000 85.854118 85.795036 82.123215
586 5 1  0.000000 84.567970 85.486740 82.679214
587 5 1  0.000000 83.961014 86.767677 82.645531
588 5 1  0.000000 82.793892 87.353462 83.430595
589 5 1  0.000000 83.134171 88.299377 84.778542
590 5 1  0.000000 82.214233 88.357117 85.604515
591 5 1  0.000000 81.157082 88.997528 85.836067
592 5 1  0.000000 80.988861 89.653679 87.649658
593 5 1  0.000000 82.150642 89.148666 87.650787
594 5 1  0.000000 81.316444 88.438255 88.940010
595 5 1  0.000000 83.066994 86.992554 89.831406
596 5 1  0.000000 85.000900 85.702728 89.973785
597 5 1  0.000000 86.121628 85.519119 90.263382
598 5 1  0.000000 87.655510 85.501305 89.437180
599 5 1  0.000000 89.126465 85.401741 88.654144
600 5 1  0.000000 90.148788 84.125633 88.800339
601 6 1  0.000000 127.621048 74.415932 108.062050
602 6 1  0.000000 127.415039 72.907852 109.237411
603 6 1  0.000000 126.312134 73.994591 109.468620
604 6 1  0.000000 125.562111 74.525948 110.638931
605 6 1  0.000000 124.106682 74.865425 111.646431
606 6 1  0.000000 124.578423 74.668648 113.396194
607 6 1  0.000000 125.903130 75.657402 113.890495
608 6 1  0.000000 126.374268 76.428635 114.745819
609 6 1  0.000000 126.938675 77.810677 113.847122
610 6 1  0.000000 128.123001 78.331055 112.457542
611 6 1  0.000000 128.865433 78.460159 110.487335
612 6 1  0.000000 127.790741 79.435158 109.159012
613 6 1  0.000000 127.914940 80.588623 110.985428
614 6 1  0.000000 127.621147 82.520271 111.070091
615 6 1  0.000000 126.202904 83.540154 110.454247
616 6 1  0.000000 125.539352 84.663063 109.558456