Created with TaichiMD

1000 atoms
990 bonds
  0 angles
  0 dihedrals
  0 impropers

1 atom types
1 bond types
0 angle types
0 dihedral types
0 improper types

-80.00000  80.00000 xlo xhi
-80.00000  80.00000 ylo yhi
-80.00000  80.00000 zlo zhi

Masses

1 10.0000

Atoms

  1 0 1  0.000000 17.374411 13.143619 87.110710
  2 0 1  0.000000 19.308764 12.831584 86.701019
  3 0 1  0.000000 20.829079 12.397028 86.370018
  4 0 1  0.000000 21.685205 10.450778 85.895172
  5 0 1  0.000000 22.610106 12.016472 85.907028
  6 0 1  0.000000 23.055925 13.838642 85.308540
  7 0 1  0.000000 24.306822 12.890935 84.990486
  8 0 1  0.000000 25.216993 14.063730 83.934578
  9 0 1  0.000000 26.726849 13.579828 82.987556
 10 0 1  0.000000 25.674891 14.786358 82.317253
 11 0 1  0.000000 27.215225 15.553209 82.313599
 12 0 1  0.000000 26.608749 16.543800 81.482742
 13 0 1  0.000000 27.059389 17.996384 81.032631
 14 0 1  0.000000 27.912289 17.430920 82.485153
 15 0 1  0.000000 27.701830 18.707697 81.625244
 16 0 1  0.000000 29.181477 19.362806 81.736290
 17 0 1  0.000000 29.800999 18.971155 80.528969
 18 0 1  0.000000 31.596581 19.724644 80.474747
 19 0 1  0.000000 33.263199 21.149715 80.132431
 20 0 1  0.000000 34.476555 20.952190 81.528198
 21 0 1  0.000000 34.427361 21.545452 82.218498
 22 0 1  0.000000 34.660110 19.950943 81.929138
 23 0 1  0.000000 35.729023 18.611858 81.161514
 24 0 1  0.000000 36.644791 18.744862 79.545952
 25 0 1  0.000000 38.237549 19.046591 79.972565
 26 0 1  0.000000 39.946114 19.554268 79.178482
 27 0 1  0.000000 41.820393 19.162992 77.875351
 28 0 1  0.000000 43.370701 20.348343 78.043320
 29 0 1  0.000000 45.329517 20.358236 77.774780
 30 0 1  0.000000 46.457878 20.357924 78.407120
 31 0 1  0.000000 47.544662 20.896883 79.187439
 32 0 1  0.000000 49.259010 21.774132 80.934494
 33 0 1  0.000000 51.254776 21.234760 81.117958
 34 0 1  0.000000 52.786724 21.751890 81.603867
 35 0 1  0.000000 53.435596 19.682606 81.069931
 36 0 1  0.000000 55.123920 21.108603 81.136070
 37 0 1  0.000000 57.052132 20.701740 81.253639
 38 0 1  0.000000 58.237904 21.111061 80.481277
 39 0 1  0.000000 60.166889 21.090576 80.767914
 40 0 1  0.000000 62.001503 21.681942 81.235260
 41 0 1  0.000000 62.852707 20.021294 80.909599
 42 0 1  0.000000 64.434982 20.230070 79.902084
 43 0 1  0.000000 65.684280 19.939083 79.745781
 44 0 1  0.000000 67.827591 19.315811 80.311844
 45 0 1  0.000000 69.940002 18.633146 80.517380
 46 0 1  0.000000 70.603386 17.718437 82.118156
 47 0 1  0.000000 73.017456 18.043568 81.913010
 48 0 1  0.000000 74.757996 18.533064 82.158463
 49 0 1  0.000000 75.893066 18.392551 81.170189
 50 0 1  0.000000 77.788284 18.657663 81.795517
 51 0 1  0.000000 79.496193 19.484983 82.246414
 52 0 1  0.000000 80.868614 20.479710 82.517418
 53 0 1  0.000000 83.032440 19.873280 82.018700
 54 0 1  0.000000 84.619537 20.053917 81.823639
 55 0 1  0.000000 87.062851 19.075434 82.337326
 56 0 1  0.000000 87.989876 19.697479 83.674889
 57 0 1  0.000000 89.886368 20.532383 84.422913
 58 0 1  0.000000 91.216118 19.855158 85.116798
 59 0 1  0.000000 91.672249 18.652842 85.996262
 60 0 1  0.000000 93.510139 19.780874 85.311203
 61 0 1  0.000000 94.828720 19.056103 85.488403
 62 0 1  0.000000 97.338882 19.528482 85.249886
 63 0 1  0.000000 99.431908 19.105322 85.047295
 64 0 1  0.000000 100.700928 20.136442 83.711624
 65 0 1  0.000000 102.184624 19.001610 83.026970
 66 0 1  0.000000 103.484474 20.135651 83.531860
 67 0 1  0.000000 105.821922 19.883739 83.238602
 68 0 1  0.000000 107.854614 20.653111 83.492775
 69 0 1  0.000000 109.019455 21.435390 82.690323
 70 0 1  0.000000 111.378883 21.636312 82.075035
 71 0 1  0.000000 113.469551 20.532288 81.633072
 72 0 1  0.000000 115.224594 19.353151 82.270615
 73 0 1  0.000000 116.627243 20.708813 83.248070
 74 0 1  0.000000 118.363495 20.955080 82.782715
 75 0 1  0.000000 120.561630 20.838739 82.867401
 76 0 1  0.000000 122.200783 21.033676 82.348717
 77 0 1  0.000000 123.925323 20.734812 82.068855
 78 0 1  0.000000 125.226418 21.687460 82.606476
 79 0 1  0.000000 126.379700 20.532614 83.723274
 80 0 1  0.000000 127.696602 20.527872 82.756371
 81 0 1  0.000000 129.320328 20.824167 84.079475
 82 0 1  0.000000 129.994644 19.556463 83.943062
 83 0 1  0.000000 131.074463 20.280008 83.489304
 84 0 1  0.000000 132.239563 20.131474 83.463234
 85 0 1  0.000000 132.253906 20.571177 84.800041
 86 0 1  0.000000 133.549667 20.745363 84.172592
 87 0 1  0.000000 135.414398 21.090113 84.444191
 88 0 1  0.000000 137.058182 20.961491 84.169380
 89 0 1  0.000000 137.788208 22.067585 84.421692
 90 0 1  0.000000 139.176163 23.185534 84.209541
 91 0 1  0.000000 138.889557 24.421644 85.515251
 92 0 1  0.000000 139.429443 23.347267 86.849113
 93 0 1  0.000000 139.647141 24.808239 87.006081
 94 0 1  0.000000 141.441360 24.562227 87.145676
 95 0 1  0.000000 142.308197 25.895136 87.342178
 96 0 1  0.000000 142.761719 24.831690 88.444489
 97 0 1  0.000000 142.695404 22.936195 88.609703
 98 0 1  0.000000 143.372101 21.833178 87.867676
 99 0 1  0.000000 143.142685 20.502028 87.303871
100 0 1  0.000000 144.127396 19.355309 87.315834
101 1 1  0.000000 27.355415 36.541904 83.500801
102 1 1  0.000000 27.795542 36.787468 81.852173
103 1 1  0.000000 26.375408 35.694920 81.530830
104 1 1  0.000000 26.559900 34.797314 81.768364
105 1 1  0.000000 26.529287 33.576878 81.374161
106 1 1  0.000000 27.754925 32.694691 82.094818
107 1 1  0.000000 28.089901 31.535755 83.585213
108 1 1  0.000000 27.630682 32.249298 85.235229
109 1 1  0.000000 27.807241 30.746340 83.898399
110 1 1  0.000000 28.436708 29.655348 83.630058
111 1 1  0.000000 29.392754 28.659660 82.630730
112 1 1  0.000000 29.774055 27.573498 83.873894
113 1 1  0.000000 30.477018 27.481146 85.427284
114 1 1  0.000000 30.686367 29.055557 86.281693
115 1 1  0.000000 32.595894 29.336905 86.165901
116 1 1  0.000000 32.991016 29.138906 84.965538
117 1 1  0.000000 34.226494 30.046883 86.268593
118 1 1  0.000000 35.109840 31.310827 87.074127
119 1 1  0.000000 36.748898 30.270985 86.531662
120 1 1  0.000000 37.644875 30.721172 85.375290
121 1 1  0.000000 38.022255 31.907955 84.918259
122 1 1  0.000000 38.391602 33.626354 85.361404
123 1 1  0.000000 39.768600 34.671738 85.838715
124 1 1  0.000000 40.878704 33.144920 86.637833
125 1 1  0.000000 41.571098 34.469921 85.575409
126 1 1  0.000000 42.869690 35.231739 84.711586
127 1 1  0.000000 44.500145 35.000549 84.225266
128 1 1  0.000000 46.159676 35.958637 84.068230
129 1 1  0.000000 46.922722 35.926674 82.461006
130 1 1  0.000000 48.408627 36.062824 83.258278
131 1 1  0.000000 50.404644 35.954273 83.333405
132 1 1  0.000000 52.072487 36.708260 82.297707
133 1 1  0.000000 54.091904 35.774441 81.994530
134 1 1  0.000000 55.290318 35.105179 80.993340
135 1 1  0.000000 56.568020 34.084644 80.921974
136 1 1  0.000000 57.980305 35.510639 81.176689
137 1 1  0.000000 59.082813 35.398609 80.585892
138 1 1  0.000000 60.858192 35.745049 80.531227
139 1 1  0.000000 62.294598 37.083530 80.349617
140 1 1  0.000000 64.213242 36.538826 80.183998
141 1 1  0.000000 65.935776 36.790730 79.799301
142 1 1  0.000000 67.301163 35.345295 79.384102
143 1 1  0.000000 68.907295 35.779655 78.763695
144 1 1  0.000000 70.595810 35.921825 77.916328
145 1 1  0.000000 72.043221 36.797703 78.050636
146 1 1  0.000000 73.785225 36.608498 76.780930
147 1 1  0.000000 74.688019 36.160778 75.623398
148 1 1  0.000000 76.020859 35.573719 76.078484
149 1 1  0.000000 77.518478 35.662014 74.785515
150 1 1  0.000000 79.655823 34.204708 74.750984
151 1 1  0.000000 81.555878 34.140575 75.190231
152 1 1  0.000000 83.229965 33.316643 75.672989
153 1 1  0.000000 84.591934 31.559706 76.377327
154 1 1  0.000000 86.767548 32.196091 76.799248
155 1 1  0.000000 87.720627 32.770611 78.112366
156 1 1  0.000000 90.060318 32.744591 78.213921
157 1 1  0.000000 91.503433 33.456913 79.718521
158 1 1  0.000000 92.581589 33.581161 79.658089
159 1 1  0.000000 94.556473 34.101902 78.997025
160 1 1  0.000000 96.537209 34.086430 79.065735
161 1 1  0.000000 98.706657 34.052135 79.254005
162 1 1  0.000000 99.936913 33.829578 80.107338
163 1 1  0.000000 101.410919 33.764179 81.418259
164 1 1  0.000000 101.729645 34.509907 80.452431
165 1 1  0.000000 103.493378 35.251644 80.402748
166 1 1  0.000000 104.464241 34.356247 81.209366
167 1 1  0.000000 105.827919 35.495911 80.726372
168 1 1  0.000000 107.442223 35.393742 80.482849
169 1 1  0.000000 109.548096 34.285404 80.236115
170 1 1  0.000000 111.267738 35.144073 80.134308
171 1 1  0.000000 114.133430 34.356041 79.643631
172 1 1  0.000000 115.904640 35.227379 80.271942
173 1 1  0.000000 118.023643 35.200542 80.450386
174 1 1  0.000000 119.940041 34.476456 80.164497
175 1 1  0.000000 121.180542 34.934460 81.921928
176 1 1  0.000000 123.237129 36.083969 82.419861
177 1 1  0.000000 124.684418 37.161572 82.291100
178 1 1  0.000000 125.231522 37.111176 81.740326
179 1 1  0.000000 126.259453 37.058533 83.234993
180 1 1  0.000000 126.932625 37.547016 84.240578
181 1 1  0.000000 127.312477 38.971863 84.265305
182 1 1  0.000000 128.170258 39.935951 82.570328
183 1 1  0.000000 129.446869 40.956223 82.995880
184 1 1  0.000000 130.354675 41.760204 80.981834
185 1 1  0.000000 130.679916 40.243309 81.602089
186 1 1  0.000000 131.581573 40.118645 79.664665
187 1 1  0.000000 131.837433 38.127834 79.082214
188 1 1  0.000000 133.598999 38.042835 80.102081
189 1 1  0.000000 133.400726 36.966301 81.678581
190 1 1  0.000000 134.961838 37.298138 82.048073
191 1 1  0.000000 135.830811 37.598953 80.692886
192 1 1  0.000000 137.003998 37.959648 79.685310
193 1 1  0.000000 138.822388 37.799927 79.938202
194 1 1  0.000000 140.235062 38.251961 78.300705
195 1 1  0.000000 141.840149 38.252888 78.122818
196 1 1  0.000000 143.328583 38.816586 77.837143
197 1 1  0.000000 143.867416 40.194584 79.208984
198 1 1  0.000000 145.153030 39.438515 78.402672
199 1 1  0.000000 146.442368 38.287369 78.962608
200 1 1  0.000000 146.299438 37.428043 77.617836
201 2 1  0.000000 12.479608 51.806126 77.577446
202 2 1  0.000000 11.945930 51.354069 78.277763
203 2 1  0.000000 12.887748 51.201031 76.303238
204 2 1  0.000000 13.636630 50.860897 75.196259
205 2 1  0.000000 14.015168 52.157253 74.617317
206 2 1  0.000000 14.187523 50.601501 73.750504
207 2 1  0.000000 14.574019 48.856403 72.943771
208 2 1  0.000000 16.122763 47.897205 71.319275
209 2 1  0.000000 17.377045 47.399067 72.455017
210 2 1  0.000000 18.637785 46.759457 72.943344
211 2 1  0.000000 18.662136 48.790470 73.049126
212 2 1  0.000000 19.381004 48.368275 71.659676
213 2 1  0.000000 20.229195 49.695988 70.882004
214 2 1  0.000000 21.385704 48.512608 71.797935
215 2 1  0.000000 22.863310 47.627167 71.422417
216 2 1  0.000000 24.063797 48.371326 70.230354
217 2 1  0.000000 25.737087 48.090256 71.154968
218 2 1  0.000000 26.506433 49.440216 71.003212
219 2 1  0.000000 28.481575 48.839325 71.724274
220 2 1  0.000000 30.051718 49.461021 72.255402
221 2 1  0.000000 31.555723 50.684299 72.516800
222 2 1  0.000000 32.707001 50.031376 73.878105
223 2 1  0.000000 33.582649 48.114952 74.381477
224 2 1  0.000000 35.083122 48.982727 73.609985
225 2 1  0.000000 36.709473 48.860722 74.657234
226 2 1  0.000000 37.692722 48.972523 75.731010
227 2 1  0.000000 38.704723 48.618069 76.899574
228 2 1  0.000000 40.218487 49.429966 77.219208
229 2 1  0.000000 42.402420 48.498489 77.824638
230 2 1  0.000000 44.416603 48.721413 77.342796
231 2 1  0.000000 46.548389 48.346603 76.761208
232 2 1  0.000000 47.912849 47.416412 76.648643
233 2 1  0.000000 49.301952 48.324837 77.853111
234 2 1  0.000000 51.168858 48.107975 77.898163
235 2 1  0.000000 52.955677 47.306534 77.992897
236 2 1  0.000000 54.812546 47.451027 78.253769
237 2 1  0.000000 56.752823 47.504982 78.265648
238 2 1  0.000000 57.906555 45.680210 77.910828
239 2 1  0.000000 59.642262 45.572975 78.445526
240 2 1  0.000000 61.725956 45.189346 77.967194
241 2 1  0.000000 63.353096 45.250854 78.431915
242 2 1  0.000000 64.823517 45.101307 78.768280
243 2 1  0.000000 66.756149 44.962929 78.951202
244 2 1  0.000000 68.629303 45.094109 77.579903
245 2 1  0.000000 71.001526 45.802872 78.075890
246 2 1  0.000000 72.877174 46.701275 78.503983
247 2 1  0.000000 74.534958 45.968353 79.024490
248 2 1  0.000000 76.165802 46.375473 78.672783
249 2 1  0.000000 78.437698 46.366329 77.918396
250 2 1  0.000000 80.241348 46.469212 76.767326
251 2 1  0.000000 81.337151 45.183823 76.041656
252 2 1  0.000000 82.506409 44.740078 76.798347
253 2 1  0.000000 84.952087 45.522423 77.447296
254 2 1  0.000000 87.356102 45.550236 77.615578
255 2 1  0.000000 88.905548 45.509014 77.954002
256 2 1  0.000000 90.873528 45.967060 78.260963
257 2 1  0.000000 92.447624 45.547142 79.058723
258 2 1  0.000000 94.250076 45.639267 77.555504
259 2 1  0.000000 94.899414 46.183716 75.980690
260 2 1  0.000000 95.839462 47.545948 76.455452
261 2 1  0.000000 97.409325 48.047916 76.182755
262 2 1  0.000000 98.450806 49.087852 77.150345
263 2 1  0.000000 100.363892 48.920368 78.138428
264 2 1  0.000000 102.128418 48.017540 77.636604
265 2 1  0.000000 103.693794 49.005875 77.160355
266 2 1  0.000000 105.853134 48.414394 77.516869
267 2 1  0.000000 107.607552 49.152210 78.440094
268 2 1  0.000000 109.448242 48.617847 77.561546
269 2 1  0.000000 111.360031 47.955734 77.604050
270 2 1  0.000000 113.199478 48.147678 76.673569
271 2 1  0.000000 114.650024 46.968819 77.146843
272 2 1  0.000000 116.278290 47.342491 76.280777
273 2 1  0.000000 117.757034 47.709148 77.128799
274 2 1  0.000000 118.456734 46.768925 78.497665
275 2 1  0.000000 118.355888 48.178009 77.784149
276 2 1  0.000000 120.504845 47.860603 77.117218
277 2 1  0.000000 122.512459 47.678795 78.142075
278 2 1  0.000000 123.891739 47.090862 77.963448
279 2 1  0.000000 125.681938 47.646385 78.018082
280 2 1  0.000000 126.363724 46.910091 79.335602
281 2 1  0.000000 127.426086 46.363419 80.714333
282 2 1  0.000000 127.312187 46.240345 81.621933
283 2 1  0.000000 129.221405 46.089005 81.875160
284 2 1  0.000000 130.643127 45.851410 81.603676
285 2 1  0.000000 131.676071 46.930012 81.625435
286 2 1  0.000000 132.886932 46.114899 80.513084
287 2 1  0.000000 132.626831 44.693081 80.444206
288 2 1  0.000000 132.948090 43.739731 81.177544
289 2 1  0.000000 134.083130 42.476585 81.250046
290 2 1  0.000000 135.807968 41.783112 80.957542
291 2 1  0.000000 136.307281 40.907043 81.646667
292 2 1  0.000000 138.109772 40.676319 81.684692
293 2 1  0.000000 138.852478 41.766003 82.419876
294 2 1  0.000000 140.174393 41.662052 81.300072
295 2 1  0.000000 140.303711 40.089851 81.811920
296 2 1  0.000000 141.256607 41.252537 81.928299
297 2 1  0.000000 142.025711 41.606304 84.180634
298 2 1  0.000000 141.692169 42.026825 85.656387
299 2 1  0.000000 140.771011 41.312737 86.232628
300 2 1  0.000000 141.801208 41.444267 85.485817
301 3 1  0.000000 22.397558 60.936348 86.894753
302 3 1  0.000000 22.576103 60.756165 88.545624
303 3 1  0.000000 21.720835 62.000675 89.669708
304 3 1  0.000000 23.203903 61.945911 90.277870
305 3 1  0.000000 24.639854 61.527866 89.316246
306 3 1  0.000000 25.730701 62.703640 90.473625
307 3 1  0.000000 25.620253 63.876316 88.749939
308 3 1  0.000000 26.527222 64.236580 87.775200
309 3 1  0.000000 24.743797 64.064934 86.364235
310 3 1  0.000000 26.646770 63.664585 85.838692
311 3 1  0.000000 28.041494 62.746536 86.722557
312 3 1  0.000000 28.403786 61.526428 88.126915
313 3 1  0.000000 29.950382 60.955807 88.260780
314 3 1  0.000000 31.742359 59.760941 87.749802
315 3 1  0.000000 31.247904 58.265831 87.569290
316 3 1  0.000000 31.913723 59.195908 86.530273
317 3 1  0.000000 33.235329 59.835693 85.167473
318 3 1  0.000000 35.052937 58.789749 84.432030
319 3 1  0.000000 35.585773 59.740582 85.554329
320 3 1  0.000000 36.793411 60.326763 85.406670
321 3 1  0.000000 37.343807 60.000305 84.465904
322 3 1  0.000000 38.636761 59.858414 84.007004
323 3 1  0.000000 39.926594 58.868198 84.514389
324 3 1  0.000000 41.204773 58.133663 83.929420
325 3 1  0.000000 42.510323 58.514893 82.580948
326 3 1  0.000000 44.085423 58.060017 83.427658
327 3 1  0.000000 45.979984 57.598915 83.153870
328 3 1  0.000000 46.059971 57.642902 81.052818
329 3 1  0.000000 47.867970 57.509476 80.512276
330 3 1  0.000000 49.553570 56.947906 80.100685
331 3 1  0.000000 51.099106 57.541523 80.312569
332 3 1  0.000000 53.266632 57.406750 80.120880
333 3 1  0.000000 54.923008 58.909676 80.306526
334 3 1  0.000000 56.266083 58.909332 78.501625
335 3 1  0.000000 57.922432 58.969296 78.270988
336 3 1  0.000000 58.794888 60.586426 77.569878
337 3 1  0.000000 60.087437 60.442947 76.849960
338 3 1  0.000000 61.904499 60.846970 76.765373
339 3 1  0.000000 63.672451 60.614811 76.998444
340 3 1  0.000000 65.417389 60.321590 77.882072
341 3 1  0.000000 66.268433 61.840603 77.604851
342 3 1  0.000000 67.470665 61.299877 76.325119
343 3 1  0.000000 68.662987 61.379173 76.346298
344 3 1  0.000000 70.995743 61.675972 76.608185
345 3 1  0.000000 72.749420 62.379730 76.646950
346 3 1  0.000000 74.616852 63.031570 78.222939
347 3 1  0.000000 76.229622 63.754074 77.891815
348 3 1  0.000000 78.278015 63.257740 77.697723
349 3 1  0.000000 79.839935 63.866482 77.076721
350 3 1  0.000000 81.179489 63.983318 77.718704
351 3 1  0.000000 82.401611 63.844791 78.900055
352 3 1  0.000000 83.983246 63.689217 79.413254
353 3 1  0.000000 85.097023 62.858128 79.599243
354 3 1  0.000000 87.049728 62.929493 78.715210
355 3 1  0.000000 88.815079 62.788261 79.535957
356 3 1  0.000000 90.658585 62.274075 79.988754
357 3 1  0.000000 91.522865 63.588409 79.558212
358 3 1  0.000000 92.831070 63.985870 80.217270
359 3 1  0.000000 94.212616 63.699692 81.151009
360 3 1  0.000000 95.837090 63.838394 80.146660
361 3 1  0.000000 97.529289 63.087067 80.100029
362 3 1  0.000000 98.996429 63.376778 80.628685
363 3 1  0.000000 100.709343 62.840092 81.631401
364 3 1  0.000000 102.352440 63.677036 82.739090
365 3 1  0.000000 104.181740 63.773186 83.303452
366 3 1  0.000000 104.895401 62.507626 83.621773
367 3 1  0.000000 105.599197 61.623081 84.466057
368 3 1  0.000000 107.231270 61.667915 85.559258
369 3 1  0.000000 108.798233 62.186245 85.060806
370 3 1  0.000000 110.619957 62.571049 84.507149
371 3 1  0.000000 112.392441 61.467548 84.418129
372 3 1  0.000000 114.426224 60.948944 84.280632
373 3 1  0.000000 115.402916 61.956127 85.348244
374 3 1  0.000000 116.992920 62.916992 84.423775
375 3 1  0.000000 118.915329 63.095562 85.401421
376 3 1  0.000000 120.839661 62.143246 85.138817
377 3 1  0.000000 121.427521 61.154617 83.251472
378 3 1  0.000000 123.243309 60.970619 83.709175
379 3 1  0.000000 124.100395 59.039612 84.458534
380 3 1  0.000000 126.487991 59.332100 84.862762
381 3 1  0.000000 127.991127 58.526711 84.655495
382 3 1  0.000000 129.507797 58.532398 84.351196
383 3 1  0.000000 131.065796 58.583736 84.722404
384 3 1  0.000000 132.424362 58.527485 84.123756
385 3 1  0.000000 133.268112 59.092693 83.173035
386 3 1  0.000000 133.799240 60.206329 84.435181
387 3 1  0.000000 133.881165 60.424122 85.481735
388 3 1  0.000000 134.982895 60.845070 86.447350
389 3 1  0.000000 136.328018 60.549824 87.043510
390 3 1  0.000000 136.979889 59.544872 85.501587
391 3 1  0.000000 137.739960 60.980801 85.230919
392 3 1  0.000000 138.945969 60.892601 83.950813
393 3 1  0.000000 138.209213 61.915417 82.632179
394 3 1  0.000000 138.871414 63.013245 82.424904
395 3 1  0.000000 138.520752 62.245895 81.040993
396 3 1  0.000000 139.972153 62.691132 81.082161
397 3 1  0.000000 141.189331 62.702492 79.860321
398 3 1  0.000000 141.263321 63.622406 77.908928
399 3 1  0.000000 139.790207 64.160614 77.554047
400 3 1  0.000000 140.560013 64.028351 76.629837
401 4 1  0.000000 26.928284 72.220055 73.335907
402 4 1  0.000000 26.036753 72.458855 74.429291
403 4 1  0.000000 24.757887 72.161911 75.513535
404 4 1  0.000000 24.283787 71.301041 74.317680
405 4 1  0.000000 23.472923 72.910149 74.083832
406 4 1  0.000000 22.085878 73.621307 73.501640
407 4 1  0.000000 21.227549 74.685654 74.578300
408 4 1  0.000000 20.956919 74.504333 76.395363
409 4 1  0.000000 22.307650 74.801872 77.753967
410 4 1  0.000000 23.699368 74.645035 77.911110
411 4 1  0.000000 23.934172 75.571091 79.723824
412 4 1  0.000000 24.602121 73.908592 80.147408
413 4 1  0.000000 26.340881 73.343094 79.707397
414 4 1  0.000000 26.697582 72.451653 81.072647
415 4 1  0.000000 28.406099 71.423325 81.676079
416 4 1  0.000000 29.721228 71.623947 82.787766
417 4 1  0.000000 31.586506 70.957703 83.259720
418 4 1  0.000000 32.587364 70.346565 82.966400
419 4 1  0.000000 32.779167 71.342087 83.820045
420 4 1  0.000000 34.458061 70.946404 82.776947
421 4 1  0.000000 35.596085 70.917847 82.976418
422 4 1  0.000000 36.585854 70.744759 82.781738
423 4 1  0.000000 37.507412 70.847275 81.574646
424 4 1  0.000000 38.668247 69.502357 81.533043
425 4 1  0.000000 39.322899 70.710670 80.628845
426 4 1  0.000000 40.917194 71.539307 80.082970
427 4 1  0.000000 43.031567 70.703865 79.976021
428 4 1  0.000000 44.458076 70.728920 78.692345
429 4 1  0.000000 45.795284 70.385155 78.126701
430 4 1  0.000000 47.927895 70.832108 77.865044
431 4 1  0.000000 49.895065 70.539322 76.514854
432 4 1  0.000000 51.582924 71.520905 76.214378
433 4 1  0.000000 53.026852 71.050056 76.722176
434 4 1  0.000000 54.449551 70.860359 77.123665
435 4 1  0.000000 55.377056 69.607109 77.171875
436 4 1  0.000000 56.385818 69.078506 76.426254
437 4 1  0.000000 57.698788 69.529205 76.928871
438 4 1  0.000000 59.805668 69.432831 76.889793
439 4 1  0.000000 61.529419 69.759216 77.267197
440 4 1  0.000000 63.316654 68.031929 77.259895
441 4 1  0.000000 64.771133 68.294662 76.195351
442 4 1  0.000000 65.902504 69.625206 75.399277
443 4 1  0.000000 67.349861 68.382179 75.347733
444 4 1  0.000000 68.881393 66.947418 74.927010
445 4 1  0.000000 71.028824 67.086235 74.261726
446 4 1  0.000000 72.399582 67.429298 73.728569
447 4 1  0.000000 74.648705 67.817665 73.843216
448 4 1  0.000000 76.151619 66.354904 73.687904
449 4 1  0.000000 77.970001 66.076180 73.447357
450 4 1  0.000000 78.477898 66.610878 74.577995
451 4 1  0.000000 79.916924 67.116386 74.573235
452 4 1  0.000000 81.278938 67.401924 75.771622
453 4 1  0.000000 82.529350 67.372215 76.243774
454 4 1  0.000000 84.073639 66.855972 76.720352
455 4 1  0.000000 85.912636 68.043358 77.122704
456 4 1  0.000000 86.896629 68.309959 79.052856
457 4 1  0.000000 88.551765 67.543594 79.111908
458 4 1  0.000000 90.093864 67.864815 80.089859
459 4 1  0.000000 92.080063 68.151237 79.736839
460 4 1  0.000000 93.232056 68.203644 78.382477
461 4 1  0.000000 95.091080 68.558266 79.902245
462 4 1  0.000000 96.579735 67.492226 79.310783
463 4 1  0.000000 98.129021 67.692253 80.021538
464 4 1  0.000000 99.991745 66.699081 79.978485
465 4 1  0.000000 101.125305 65.820969 79.421387
466 4 1  0.000000 101.575386 66.054337 78.623985
467 4 1  0.000000 103.169960 67.070419 78.389091
468 4 1  0.000000 105.164108 67.423286 78.463654
469 4 1  0.000000 106.387695 68.836281 79.285545
470 4 1  0.000000 107.822319 70.087563 78.562912
471 4 1  0.000000 109.531776 70.600281 79.300674
472 4 1  0.000000 110.764114 69.938568 78.665535
473 4 1  0.000000 112.109283 71.004318 78.725533
474 4 1  0.000000 114.026222 71.516098 77.645393
475 4 1  0.000000 115.567749 72.208488 78.024910
476 4 1  0.000000 117.817711 72.074593 78.704323
477 4 1  0.000000 119.467834 72.132553 78.746635
478 4 1  0.000000 120.823807 71.276970 77.414238
479 4 1  0.000000 121.241821 72.903671 76.605553
480 4 1  0.000000 121.740791 73.677483 75.624481
481 4 1  0.000000 122.575180 74.126877 74.829681
482 4 1  0.000000 122.393524 72.176552 74.427971
483 4 1  0.000000 123.672737 73.492432 74.153961
484 4 1  0.000000 125.326225 74.131340 74.523361
485 4 1  0.000000 126.469658 73.707565 75.083969
486 4 1  0.000000 127.839470 72.050446 75.224289
487 4 1  0.000000 127.619850 71.267006 73.768806
488 4 1  0.000000 128.771149 72.618996 73.392517
489 4 1  0.000000 129.469406 73.332756 72.007439
490 4 1  0.000000 130.421936 74.535362 71.273895
491 4 1  0.000000 130.484848 76.270973 71.326859
492 4 1  0.000000 130.464951 76.111130 73.069901
493 4 1  0.000000 131.594604 77.196999 73.153542
494 4 1  0.000000 132.765182 77.979767 72.608902
495 4 1  0.000000 133.835449 77.039207 72.837143
496 4 1  0.000000 135.691025 76.613678 73.834831
497 4 1  0.000000 134.975800 76.841225 72.321945
498 4 1  0.000000 136.030228 77.836357 71.834221
499 4 1  0.000000 136.419724 78.569885 70.522469
500 4 1  0.000000 137.756973 78.446182 70.254486
501 5 1  0.000000 18.455778 87.809189 79.008736
502 5 1  0.000000 17.889618 86.599380 78.134842
503 5 1  0.000000 18.688639 85.332504 76.915901
504 5 1  0.000000 19.884752 84.650803 76.114403
505 5 1  0.000000 18.826317 84.555931 76.141487
506 5 1  0.000000 20.228693 84.692963 74.665344
507 5 1  0.000000 21.148584 86.213516 74.501717
508 5 1  0.000000 22.614071 87.062164 73.932816
509 5 1  0.000000 23.206369 87.972519 75.157661
510 5 1  0.000000 23.908810 88.002182 76.146240
511 5 1  0.000000 25.301249 87.751976 75.801010
512 5 1  0.000000 25.880043 86.281570 76.120712
513 5 1  0.000000 26.371574 84.697952 75.746696
514 5 1  0.000000 27.870014 84.366722 74.842743
515 5 1  0.000000 28.358093 85.661407 73.976967
516 5 1  0.000000 29.001448 83.651291 73.259644
517 5 1  0.000000 29.479595 82.035164 73.558632
518 5 1  0.000000 30.535685 81.120026 74.045151
519 5 1  0.000000 31.811119 81.446541 72.695602
520 5 1  0.000000 33.373669 80.986450 73.516998
521 5 1  0.000000 33.377224 82.358185 74.346992
522 5 1  0.000000 34.281590 81.315063 74.543571
523 5 1  0.000000 35.798107 81.371147 73.999596
524 5 1  0.000000 37.238880 80.677231 74.878891
525 5 1  0.000000 38.102581 81.748177 75.957878
526 5 1  0.000000 39.653049 81.890709 76.479233
527 5 1  0.000000 40.734966 81.148010 76.987679
528 5 1  0.000000 41.530994 81.899460 77.327324
529 5 1  0.000000 42.204914 82.193474 78.366974
530 5 1  0.000000 43.305157 81.558052 79.821892
531 5 1  0.000000 44.937641 82.355446 80.003815
532 5 1  0.000000 46.368660 83.763962 79.247604
533 5 1  0.000000 48.415516 83.690430 78.539452
534 5 1  0.000000 50.402958 83.928528 78.038284
535 5 1  0.000000 51.732601 84.474953 77.656570
536 5 1  0.000000 53.209270 83.553497 77.232750
537 5 1  0.000000 54.712921 84.382660 77.850334
538 5 1  0.000000 56.852051 84.495789 78.233879
539 5 1  0.000000 58.144459 84.514969 78.394737
540 5 1  0.000000 60.395763 84.558861 78.300270
541 5 1  0.000000 62.179131 84.526588 79.236084
542 5 1  0.000000 63.770729 85.776176 79.422615
543 5 1  0.000000 64.967712 86.703667 79.164764
544 5 1  0.000000 66.458084 87.337875 78.491356
545 5 1  0.000000 67.638336 87.499413 79.554985
546 5 1  0.000000 69.778183 87.950684 79.557961
547 5 1  0.000000 70.259758 88.495071 80.841301
548 5 1  0.000000 71.410515 88.189392 81.387711
549 5 1  0.000000 73.061508 88.004097 80.789398
550 5 1  0.000000 75.118805 88.368866 81.838387
551 5 1  0.000000 76.877930 88.243690 82.455223
552 5 1  0.000000 78.092804 87.287888 82.938370
553 5 1  0.000000 80.024025 87.713516 82.295532
554 5 1  0.000000 82.157722 87.900543 81.698059
555 5 1  0.000000 84.006653 88.410805 82.221230
556 5 1  0.000000 85.605865 87.779442 81.403931
557 5 1  0.000000 87.176353 89.323425 80.699364
558 5 1  0.000000 89.264107 89.362793 80.497772
559 5 1  0.000000 91.114273 88.350220 80.666641
560 5 1  0.000000 92.215218 88.025742 79.387924
561 5 1  0.000000 94.127792 87.474930 80.392555
562 5 1  0.000000 95.744308 87.657867 81.484016
563 5 1  0.000000 97.360817 88.090652 81.041603
564 5 1  0.000000 99.045807 87.808800 81.342804
565 5 1  0.000000 100.914093 88.165695 82.171906
566 5 1  0.000000 103.106697 88.402908 82.728821
567 5 1  0.000000 104.828964 87.625244 83.097694
568 5 1  0.000000 107.233093 87.645340 82.743828
569 5 1  0.000000 109.075256 87.377518 83.161865
570 5 1  0.000000 109.780014 88.611816 81.661560
571 5 1  0.000000 111.404358 88.894981 83.418701
572 5 1  0.000000 113.170059 87.675247 82.849678
573 5 1  0.000000 115.038956 88.321426 82.747498
574 5 1  0.000000 116.869850 88.675224 82.830078
575 5 1  0.000000 118.253082 87.898293 83.280487
576 5 1  0.000000 119.779335 86.659340 83.112053
577 5 1  0.000000 121.157997 85.453415 81.741478
578 5 1  0.000000 123.594635 86.578094 81.737633
579 5 1  0.000000 125.100395 87.282684 82.413788
580 5 1  0.000000 126.588280 86.925583 82.067284
581 5 1  0.000000 128.477173 86.734024 81.286270
582 5 1  0.000000 129.419662 87.610336 82.518921
583 5 1  0.000000 129.959518 86.420692 82.392647
584 5 1  0.000000 130.422424 87.624695 83.418648
585 5 1  0.000000 131.221802 86.591858 84.395599
586 5 1  0.000000 133.153900 87.195663 84.651733
587 5 1  0.000000 134.003494 87.548904 84.896255
588 5 1  0.000000 134.879242 87.234039 83.523079
589 5 1  0.000000 135.869537 87.383865 82.523743
590 5 1  0.000000 137.727264 88.030975 82.062660
591 5 1  0.000000 137.621155 87.644707 83.658333
592 5 1  0.000000 138.142227 88.851982 84.531860
593 5 1  0.000000 139.624420 87.656372 85.048874
594 5 1  0.000000 140.453262 87.996635 84.427353
595 5 1  0.000000 141.927383 89.861427 84.091347
596 5 1  0.000000 142.085999 91.440361 84.667358
597 5 1  0.000000 143.333832 92.368416 85.150185
598 5 1  0.000000 144.079041 90.745338 85.583656
599 5 1  0.000000 145.228821 91.520531 86.739014
600 5 1  0.000000 145.314987 92.339951 85.884438
601 6 1  0.000000 25.934210 103.344757 68.901512
602 6 1  0.000000 25.291033 101.639969 70.167847
603 6 1  0.000000 23.881367 99.960480 69.914909
604 6 1  0.000000 23.488810 99.245712 71.591866
605 6 1  0.000000 23.564724 101.053619 71.707535
606 6 1  0.000000 23.535482 101.291992 73.659050
607 6 1  0.000000 24.103054 102.652145 74.062241
608 6 1  0.000000 23.029409 101.696938 74.421974
609 6 1  0.000000 23.148169 102.538765 76.044991
610 6 1  0.000000 23.203764 101.740875 77.667480
611 6 1  0.000000 22.948795 100.300163 77.847672
612 6 1  0.000000 24.316200 100.935692 79.470993
613 6 1  0.000000 25.482548 100.594162 79.473160
614 6 1  0.000000 26.385563 100.589699 81.011963