Created with TaichiMD

1000 atoms
990 bonds
  0 angles
  0 dihedrals
  0 impropers

1 atom types
1 bond types
0 angle types
0 dihedral types
0 improper types

-80.00000  80.00000 xlo xhi
-80.00000  80.00000 ylo yhi
-80.00000  80.00000 zlo zhi

Masses

1 10.0000

Atoms

  1 0 1  0.000000 68.987419  9.923549 78.367912
  2 0 1  0.000000 68.545708 10.781753 79.217819
  3 0 1  0.000000 69.532845 11.018845 79.352989
  4 0 1  0.000000 70.014198 11.708947 80.710205
  5 0 1  0.000000 69.850327 13.415752 81.255737
  6 0 1  0.000000 68.697258 13.940311 82.523834
  7 0 1  0.000000 68.145660 14.590166 83.744957
  8 0 1  0.000000 67.017357 15.539410 84.418831
  9 0 1  0.000000 66.928467 16.087055 86.017883
 10 0 1  0.000000 66.715424 17.832415 86.327316
 11 0 1  0.000000 66.533623 19.333897 86.909218
 12 0 1  0.000000 67.922287 20.637566 86.550957
 13 0 1  0.000000 67.133194 21.773422 85.478973
 14 0 1  0.000000 67.391571 22.784716 83.873871
 15 0 1  0.000000 68.097496 23.222454 82.615341
 16 0 1  0.000000 66.885582 22.230005 82.774529
 17 0 1  0.000000 67.658653 22.481319 81.389275
 18 0 1  0.000000 68.031609 21.713926 80.731049
 19 0 1  0.000000 68.210197 20.397404 79.752647
 20 0 1  0.000000 69.616508 20.120924 80.556839
 21 0 1  0.000000 69.690094 19.169876 78.493790
 22 0 1  0.000000 69.086777 20.072239 77.276192
 23 0 1  0.000000 69.072533 19.505484 75.795097
 24 0 1  0.000000 70.333046 18.818253 76.337524
 25 0 1  0.000000 71.150871 16.882299 76.917892
 26 0 1  0.000000 72.001549 15.789582 76.635574
 27 0 1  0.000000 70.977051 14.776693 75.894814
 28 0 1  0.000000 72.588287 13.975343 76.861969
 29 0 1  0.000000 73.274742 13.007037 76.095329
 30 0 1  0.000000 74.253258 12.531655 75.134499
 31 0 1  0.000000 72.977821 11.182987 74.468224
 32 0 1  0.000000 73.851639  9.840258 75.675507
 33 0 1  0.000000 75.218651 10.487473 75.633591
 34 0 1  0.000000 76.620590  9.950563 76.161530
 35 0 1  0.000000 76.227539  9.385324 77.789795
 36 0 1  0.000000 74.897911  8.700473 79.282837
 37 0 1  0.000000 75.136162  9.845161 79.194809
 38 0 1  0.000000 74.111031  8.273354 79.199127
 39 0 1  0.000000 74.906006  8.667809 80.780167
 40 0 1  0.000000 73.801460  8.837768 82.696159
 41 0 1  0.000000 74.809082  9.342715 84.549438
 42 0 1  0.000000 75.006767 10.668552 85.656731
 43 0 1  0.000000 74.834526  9.456499 84.945717
 44 0 1  0.000000 75.266121 11.060705 84.798813
 45 0 1  0.000000 74.780243 12.850080 85.463509
 46 0 1  0.000000 74.644722 14.491116 85.317574
 47 0 1  0.000000 73.146111 16.028688 84.186378
 48 0 1  0.000000 72.198715 15.797564 85.907646
 49 0 1  0.000000 73.428345 16.297350 86.102943
 50 0 1  0.000000 74.992470 17.965712 86.354393
 51 0 1  0.000000 76.010712 18.351976 84.503334
 52 0 1  0.000000 75.813728 19.767620 83.988243
 53 0 1  0.000000 75.563026 18.863918 82.582733
 54 0 1  0.000000 74.949776 20.267714 81.931656
 55 0 1  0.000000 73.497726 21.734680 81.317955
 56 0 1  0.000000 72.246918 21.930256 79.885452
 57 0 1  0.000000 72.704010 22.701777 79.205368
 58 0 1  0.000000 71.668037 23.306129 78.497787
 59 0 1  0.000000 72.421768 24.353909 77.003082
 60 0 1  0.000000 71.799393 23.628073 75.353027
 61 0 1  0.000000 71.821869 21.772179 74.332184
 62 0 1  0.000000 73.017982 21.853569 75.796074
 63 0 1  0.000000 73.731705 20.966402 75.451591
 64 0 1  0.000000 73.846581 19.701727 76.938583
 65 0 1  0.000000 74.076965 18.362047 75.843376
 66 0 1  0.000000 75.333008 18.057636 74.767525
 67 0 1  0.000000 75.321716 16.390150 73.957687
 68 0 1  0.000000 74.947754 15.455519 72.804672
 69 0 1  0.000000 74.759476 15.902239 71.085426
 70 0 1  0.000000 74.647232 17.326683 69.733208
 71 0 1  0.000000 75.721786 18.012472 70.235802
 72 0 1  0.000000 74.649086 18.358454 70.106445
 73 0 1  0.000000 74.994453 19.820246 69.605286
 74 0 1  0.000000 74.338455 21.455250 68.740463
 75 0 1  0.000000 75.468773 22.299715 67.021454
 76 0 1  0.000000 76.210114 21.400059 68.187607
 77 0 1  0.000000 77.341179 22.372038 68.996254
 78 0 1  0.000000 77.700203 23.355505 69.685127
 79 0 1  0.000000 78.234238 24.211483 68.921722
 80 0 1  0.000000 78.959633 25.851328 67.760780
 81 0 1  0.000000 79.346695 27.700253 67.145027
 82 0 1  0.000000 79.354393 28.467567 68.191643
 83 0 1  0.000000 80.156555 29.608765 66.932045
 84 0 1  0.000000 80.324013 31.563595 66.320786
 85 0 1  0.000000 79.253044 32.425964 65.169083
 86 0 1  0.000000 78.498459 34.191742 64.454674
 87 0 1  0.000000 77.835472 35.703838 65.243202
 88 0 1  0.000000 75.856834 34.991322 64.934464
 89 0 1  0.000000 74.241325 36.099106 64.081757
 90 0 1  0.000000 72.295738 36.266903 63.028194
 91 0 1  0.000000 71.993515 36.575535 61.255043
 92 0 1  0.000000 72.646423 36.335354 60.383324
 93 0 1  0.000000 71.653824 37.714443 60.613602
 94 0 1  0.000000 72.151382 39.760719 61.810078
 95 0 1  0.000000 71.915352 39.817989 62.717812
 96 0 1  0.000000 70.943016 40.152576 63.868237
 97 0 1  0.000000 71.870232 39.347519 65.298744
 98 0 1  0.000000 72.723129 39.146858 66.474113
 99 0 1  0.000000 74.421150 38.858288 67.384407
100 0 1  0.000000 74.613091 39.684441 65.985291
101 1 1  0.000000 64.903938 37.851269 70.386948
102 1 1  0.000000 66.012787 37.488010 69.225441
103 1 1  0.000000 65.392372 38.764446 68.742439
104 1 1  0.000000 66.536392 37.731506 69.358276
105 1 1  0.000000 67.098244 35.051205 68.397293
106 1 1  0.000000 68.721481 34.454613 67.673286
107 1 1  0.000000 68.630966 32.835575 67.237534
108 1 1  0.000000 70.186050 33.076111 66.591652
109 1 1  0.000000 70.132469 33.081795 65.621056
110 1 1  0.000000 71.382828 31.922705 64.130333
111 1 1  0.000000 72.569778 30.647545 64.359947
112 1 1  0.000000 73.145782 31.994047 64.792671
113 1 1  0.000000 74.815613 31.308252 64.520592
114 1 1  0.000000 74.978477 30.103689 65.878181
115 1 1  0.000000 75.588242 28.817904 66.192078
116 1 1  0.000000 74.670296 28.516485 65.517418
117 1 1  0.000000 76.392807 28.525766 66.432159
118 1 1  0.000000 76.070259 27.189817 66.940002
119 1 1  0.000000 74.645409 26.825968 68.093178
120 1 1  0.000000 74.332306 25.917664 69.030663
121 1 1  0.000000 74.870262 25.938814 69.996483
122 1 1  0.000000 76.011482 26.757696 71.388412
123 1 1  0.000000 76.240730 26.500666 72.940727
124 1 1  0.000000 77.678368 27.528322 72.394981
125 1 1  0.000000 79.422096 27.912046 73.776962
126 1 1  0.000000 79.506126 27.004454 74.166161
127 1 1  0.000000 80.221687 25.748901 75.325584
128 1 1  0.000000 78.713478 25.406113 74.797554
129 1 1  0.000000 78.651405 26.250183 76.354446
130 1 1  0.000000 76.834846 26.124403 76.360069
131 1 1  0.000000 76.344521 26.079681 78.238785
132 1 1  0.000000 74.679153 26.011059 78.540260
133 1 1  0.000000 74.318611 26.599300 79.802666
134 1 1  0.000000 75.082977 26.384289 81.336845
135 1 1  0.000000 75.505898 25.860682 82.841087
136 1 1  0.000000 76.633316 24.984406 81.726883
137 1 1  0.000000 77.896454 24.183264 81.426414
138 1 1  0.000000 78.744408 22.331560 81.780434
139 1 1  0.000000 79.962898 21.890093 81.731697
140 1 1  0.000000 81.264389 21.683353 80.767235
141 1 1  0.000000 81.692291 22.433487 79.401642
142 1 1  0.000000 81.991272 23.763826 79.004723
143 1 1  0.000000 83.472237 23.998831 79.511650
144 1 1  0.000000 83.206451 26.050310 79.697403
145 1 1  0.000000 82.789558 25.220926 80.998665
146 1 1  0.000000 81.342613 26.419619 81.550850
147 1 1  0.000000 80.570946 28.061771 80.565018
148 1 1  0.000000 80.349968 28.539091 82.176025
149 1 1  0.000000 79.462738 29.715389 81.563667
150 1 1  0.000000 78.777145 28.837856 81.312515
151 1 1  0.000000 77.848640 29.681503 82.770599
152 1 1  0.000000 77.993484 30.514471 83.996964
153 1 1  0.000000 77.386719 31.643404 84.965591
154 1 1  0.000000 77.743767 31.013483 86.079063
155 1 1  0.000000 78.931976 30.706400 86.569954
156 1 1  0.000000 79.549416 30.561426 88.105232
157 1 1  0.000000 80.752548 30.642097 86.714798
158 1 1  0.000000 81.987305 29.851057 87.798073
159 1 1  0.000000 82.025620 28.618317 86.510338
160 1 1  0.000000 82.338676 27.562099 85.011787
161 1 1  0.000000 83.444115 26.870188 86.564964
162 1 1  0.000000 85.133736 26.042614 86.809258
163 1 1  0.000000 85.103729 24.535658 85.593353
164 1 1  0.000000 84.879333 24.161219 87.372025
165 1 1  0.000000 84.398247 23.209148 88.117195
166 1 1  0.000000 85.578499 22.175142 88.139061
167 1 1  0.000000 87.253090 21.811728 88.306580
168 1 1  0.000000 86.333351 21.540619 90.117058
169 1 1  0.000000 88.248161 20.576408 90.567429
170 1 1  0.000000 88.955780 21.381823 91.593079
171 1 1  0.000000 88.099976 22.344650 92.646721
172 1 1  0.000000 86.837692 22.155794 93.774437
173 1 1  0.000000 84.715271 22.373241 93.983795
174 1 1  0.000000 83.351883 22.211344 94.081879
175 1 1  0.000000 81.917786 22.159277 94.075478
176 1 1  0.000000 81.191154 23.000950 96.039505
177 1 1  0.000000 80.484467 23.440943 95.602234
178 1 1  0.000000 80.854080 23.436104 97.103043
179 1 1  0.000000 79.676170 22.324831 97.072227
180 1 1  0.000000 79.216324 20.434923 97.336662
181 1 1  0.000000 79.431053 21.650644 98.845169
182 1 1  0.000000 78.482559 22.758108 100.202705
183 1 1  0.000000 78.547668 21.446383 101.163971
184 1 1  0.000000 79.818771 20.454176 102.061188
185 1 1  0.000000 80.522125 21.582739 102.750397
186 1 1  0.000000 81.095520 21.780638 104.132835
187 1 1  0.000000 81.518219 22.564150 105.572998
188 1 1  0.000000 81.953865 20.978548 106.891899
189 1 1  0.000000 81.484833 19.886187 108.095772
190 1 1  0.000000 82.981125 20.085119 108.197464
191 1 1  0.000000 83.998871 19.371283 108.332703
192 1 1  0.000000 85.633705 18.440228 108.305794
193 1 1  0.000000 85.783150 16.508234 108.692596
194 1 1  0.000000 87.041962 17.078569 109.435913
195 1 1  0.000000 86.891922 17.467093 107.732262
196 1 1  0.000000 87.548584 17.322849 106.264595
197 1 1  0.000000 88.516640 17.658499 105.203445
198 1 1  0.000000 87.290825 19.049356 105.490707
199 1 1  0.000000 88.433548 19.383190 105.238251
200 1 1  0.000000 87.961830 21.074947 104.264282
201 2 1  0.000000 72.017532 54.174694 69.262375
202 2 1  0.000000 70.890892 55.195297 70.492172
203 2 1  0.000000 70.368896 55.664150 69.164574
204 2 1  0.000000 68.668320 54.908161 68.484062
205 2 1  0.000000 68.518822 53.645226 69.079277
206 2 1  0.000000 68.173523 52.501667 68.615562
207 2 1  0.000000 68.101601 51.652386 69.832413
208 2 1  0.000000 66.619453 51.629322 70.903938
209 2 1  0.000000 64.977577 51.947330 71.740753
210 2 1  0.000000 66.563446 52.593910 72.402031
211 2 1  0.000000 66.831581 51.231812 73.117599
212 2 1  0.000000 65.881096 49.843819 73.548241
213 2 1  0.000000 67.198082 50.737804 74.479782
214 2 1  0.000000 68.775383 51.078690 75.011322
215 2 1  0.000000 70.175484 51.244526 74.818985
216 2 1  0.000000 70.730896 50.414833 73.456909
217 2 1  0.000000 70.818939 49.103733 74.562439
218 2 1  0.000000 70.792770 47.503185 74.383179
219 2 1  0.000000 71.117981 46.899796 76.833122
220 2 1  0.000000 70.718834 47.591438 78.399536
221 2 1  0.000000 69.843956 47.885662 79.773727
222 2 1  0.000000 71.734367 48.099632 80.369568
223 2 1  0.000000 72.686821 49.269516 79.814087
224 2 1  0.000000 73.710007 49.498470 79.885201
225 2 1  0.000000 73.889915 51.284210 79.710136
226 2 1  0.000000 75.105614 51.922661 80.488922
227 2 1  0.000000 73.804436 53.208096 80.261612
228 2 1  0.000000 74.440163 53.938873 81.372223
229 2 1  0.000000 73.965614 55.068127 81.529427
230 2 1  0.000000 74.292213 55.705273 83.326698
231 2 1  0.000000 75.589592 55.381523 84.485123
232 2 1  0.000000 76.495880 53.235191 83.691360
233 2 1  0.000000 76.913391 53.782269 84.927437
234 2 1  0.000000 75.900528 53.937836 86.102852
235 2 1  0.000000 76.797203 52.903603 86.755524
236 2 1  0.000000 78.258698 52.730583 86.808510
237 2 1  0.000000 79.992249 52.419537 86.037689
238 2 1  0.000000 79.072090 51.053055 85.255478
239 2 1  0.000000 78.750832 49.551559 86.336075
240 2 1  0.000000 77.869682 49.581787 84.920097
241 2 1  0.000000 78.524254 49.429592 83.137207
242 2 1  0.000000 78.311363 50.111572 81.588150
243 2 1  0.000000 78.482910 48.419735 81.969864
244 2 1  0.000000 77.470001 47.150543 81.592590
245 2 1  0.000000 77.261108 45.484646 82.051132
246 2 1  0.000000 78.872658 44.098106 81.148895
247 2 1  0.000000 77.609451 43.437653 81.354660
248 2 1  0.000000 77.201180 44.256592 79.678047
249 2 1  0.000000 75.700012 43.762493 78.284485
250 2 1  0.000000 75.108856 44.540867 76.992020
251 2 1  0.000000 75.070030 45.923668 77.414780
252 2 1  0.000000 75.683449 45.333851 76.378937
253 2 1  0.000000 74.681496 47.094685 76.151756
254 2 1  0.000000 74.153366 48.316990 75.577591
255 2 1  0.000000 74.275162 48.910366 73.988075
256 2 1  0.000000 75.307907 48.911224 74.349533
257 2 1  0.000000 76.838608 48.041821 73.639702
258 2 1  0.000000 78.196556 46.992695 73.298775
259 2 1  0.000000 79.770943 47.026100 72.908920
260 2 1  0.000000 79.615730 48.238007 73.377037
261 2 1  0.000000 80.843498 47.927303 73.256889
262 2 1  0.000000 82.159859 47.102470 73.922516
263 2 1  0.000000 83.119751 46.074959 74.892563
264 2 1  0.000000 83.426895 44.561687 75.502029
265 2 1  0.000000 83.932281 43.277935 75.394684
266 2 1  0.000000 82.979820 42.218845 76.325775
267 2 1  0.000000 82.788109 41.858242 77.978706
268 2 1  0.000000 83.219925 40.109184 77.501472
269 2 1  0.000000 83.552025 38.932426 78.028023
270 2 1  0.000000 82.442909 38.841114 79.599304
271 2 1  0.000000 82.459290 39.622192 81.362671
272 2 1  0.000000 81.859055 40.935905 81.971657
273 2 1  0.000000 82.558807 40.481392 82.855217
274 2 1  0.000000 82.913139 39.809246 84.508614
275 2 1  0.000000 84.098068 40.815739 86.192253
276 2 1  0.000000 83.875015 40.045647 87.594048
277 2 1  0.000000 83.708191 41.757637 86.942810
278 2 1  0.000000 82.427666 42.850533 85.326874
279 2 1  0.000000 81.271561 43.020210 84.560493
280 2 1  0.000000 80.728767 44.763561 83.800156
281 2 1  0.000000 81.823959 45.992401 83.242378
282 2 1  0.000000 82.758377 46.996147 82.121597
283 2 1  0.000000 81.383652 47.880611 82.582283
284 2 1  0.000000 81.506187 49.447311 82.642693
285 2 1  0.000000 81.218971 50.952038 81.925499
286 2 1  0.000000 82.035973 51.518440 81.057381
287 2 1  0.000000 81.926079 51.794552 82.858521
288 2 1  0.000000 82.638504 51.859852 84.428848
289 2 1  0.000000 84.388290 51.202816 84.663116
290 2 1  0.000000 85.668488 49.639839 83.750908
291 2 1  0.000000 86.731422 50.672920 84.831932
292 2 1  0.000000 87.261421 51.632214 83.915802
293 2 1  0.000000 88.601173 51.001610 84.241447
294 2 1  0.000000 89.838875 51.612190 83.696930
295 2 1  0.000000 91.080154 51.014900 82.417992
296 2 1  0.000000 90.348915 49.736786 81.525314
297 2 1  0.000000 89.507401 48.397575 81.110992
298 2 1  0.000000 88.163185 47.570641 81.817505
299 2 1  0.000000 88.954155 46.545860 80.466652
300 2 1  0.000000 89.801460 45.738628 79.363197
301 3 1  0.000000 69.647011 63.450680 92.983673
302 3 1  0.000000 71.090187 63.708160 92.392143
303 3 1  0.000000 70.327408 63.217163 94.014526
304 3 1  0.000000 71.243324 62.006748 94.755798
305 3 1  0.000000 72.272659 60.806664 94.109802
306 3 1  0.000000 73.169792 60.020596 94.500465
307 3 1  0.000000 74.537277 59.924988 94.353508
308 3 1  0.000000 74.484833 59.497551 93.203339
309 3 1  0.000000 75.427773 59.329319 92.076553
310 3 1  0.000000 75.961349 60.903534 91.621735
311 3 1  0.000000 76.486267 61.252594 90.471336
312 3 1  0.000000 76.468605 60.297565 89.544151
313 3 1  0.000000 75.340996 61.036690 89.293755
314 3 1  0.000000 76.041466 61.218468 87.733154
315 3 1  0.000000 74.549095 61.826950 87.527290
316 3 1  0.000000 73.335274 60.821880 87.252968
317 3 1  0.000000 71.686317 61.378284 86.965012
318 3 1  0.000000 70.921562 62.569984 86.167969
319 3 1  0.000000 68.649567 63.171787 85.440483
320 3 1  0.000000 68.211670 64.297028 84.419441
321 3 1  0.000000 67.976227 65.508202 83.068047
322 3 1  0.000000 68.752457 67.039001 83.461281
323 3 1  0.000000 69.742111 67.750748 84.598190
324 3 1  0.000000 70.085716 70.213821 83.853020
325 3 1  0.000000 70.905334 68.731697 83.709305
326 3 1  0.000000 71.525261 68.711334 82.399506
327 3 1  0.000000 73.251572 67.924789 82.174614
328 3 1  0.000000 73.249969 66.908058 81.988480
329 3 1  0.000000 73.300514 65.707466 83.513351
330 3 1  0.000000 74.007637 65.288361 84.281151
331 3 1  0.000000 75.267654 67.589767 84.794113
332 3 1  0.000000 76.308464 66.144089 83.988731
333 3 1  0.000000 77.313210 65.107307 83.235329
334 3 1  0.000000 77.902229 64.384323 81.253998
335 3 1  0.000000 78.073479 63.190140 80.092781
336 3 1  0.000000 76.341423 63.088028 79.099182
337 3 1  0.000000 74.856651 63.341358 80.340530
338 3 1  0.000000 75.367157 61.915546 79.603004
339 3 1  0.000000 75.001259 60.499763 78.531265
340 3 1  0.000000 76.205437 59.735931 79.105286
341 3 1  0.000000 76.328476 58.985371 80.007965
342 3 1  0.000000 77.753670 58.692539 79.936676
343 3 1  0.000000 77.997620 57.485813 80.969513
344 3 1  0.000000 78.564873 56.882492 82.438538
345 3 1  0.000000 79.614586 56.828541 83.785233
346 3 1  0.000000 79.688026 58.041260 83.179031
347 3 1  0.000000 79.811279 59.428490 83.256874
348 3 1  0.000000 79.159081 59.565075 84.534050
349 3 1  0.000000 78.675949 58.956875 85.851509
350 3 1  0.000000 80.034729 58.586853 87.194008
351 3 1  0.000000 78.943008 59.376823 87.750801
352 3 1  0.000000 80.453995 58.844425 88.591637
353 3 1  0.000000 80.970001 60.225639 89.227875
354 3 1  0.000000 80.803116 61.048943 90.415192
355 3 1  0.000000 82.515594 61.155483 90.427910
356 3 1  0.000000 83.952103 60.627007 89.341835
357 3 1  0.000000 85.118134 60.552258 88.140541
358 3 1  0.000000 83.650185 61.260551 86.967178
359 3 1  0.000000 83.203568 62.921818 86.768234
360 3 1  0.000000 82.719040 63.759998 88.056442
361 3 1  0.000000 81.541641 65.067200 87.223633
362 3 1  0.000000 82.973480 65.448441 87.292656
363 3 1  0.000000 82.429008 66.092026 85.608978
364 3 1  0.000000 81.766525 66.366905 84.181213
365 3 1  0.000000 82.955811 65.803406 83.163795
366 3 1  0.000000 81.953117 65.895309 81.697151
367 3 1  0.000000 82.011597 65.476570 80.259628
368 3 1  0.000000 81.326782 65.362595 79.379593
369 3 1  0.000000 81.185280 64.773895 77.541893
370 3 1  0.000000 80.209824 63.780666 75.653236
371 3 1  0.000000 79.042557 62.760853 76.250282
372 3 1  0.000000 78.917213 61.395451 75.335022
373 3 1  0.000000 79.243156 60.538136 76.648270
374 3 1  0.000000 78.411194 59.267521 76.594643
375 3 1  0.000000 77.077850 58.855698 75.292717
376 3 1  0.000000 76.653343 57.772011 73.984665
377 3 1  0.000000 77.004189 58.649540 72.017998
378 3 1  0.000000 78.199799 59.305218 70.954147
379 3 1  0.000000 79.432938 59.417187 71.645607
380 3 1  0.000000 79.647713 57.814430 72.227264
381 3 1  0.000000 80.491119 58.896259 72.950279
382 3 1  0.000000 81.502701 57.943707 72.654327
383 3 1  0.000000 81.902290 59.357536 73.414452
384 3 1  0.000000 83.103470 59.740677 74.227905
385 3 1  0.000000 84.007095 59.884846 72.095284
386 3 1  0.000000 83.152390 60.029533 70.774826
387 3 1  0.000000 84.651451 59.898235 69.469566
388 3 1  0.000000 86.044937 61.221416 70.276474
389 3 1  0.000000 84.970192 61.049221 69.220795
390 3 1  0.000000 84.542664 62.091328 68.076950
391 3 1  0.000000 83.237022 62.764774 66.949646
392 3 1  0.000000 81.768448 63.004375 66.897850
393 3 1  0.000000 81.211121 63.715305 68.604279
394 3 1  0.000000 80.699753 64.791618 68.809464
395 3 1  0.000000 80.908913 64.670395 70.084175
396 3 1  0.000000 82.043381 65.849548 70.023270
397 3 1  0.000000 82.413887 67.575523 69.744339
398 3 1  0.000000 83.543343 67.478592 71.179192
399 3 1  0.000000 84.895500 67.720047 72.061607
400 3 1  0.000000 84.718132 66.327454 72.626701
401 4 1  0.000000 72.155746 82.710640 74.337494
402 4 1  0.000000 71.700340 80.873398 74.008026
403 4 1  0.000000 73.042419 80.984856 72.930916
404 4 1  0.000000 74.392235 80.559044 73.315620
405 4 1  0.000000 74.086632 78.741066 72.455849
406 4 1  0.000000 75.703873 78.439941 71.787506
407 4 1  0.000000 74.494514 77.420135 72.749725
408 4 1  0.000000 75.833313 76.708282 71.388008
409 4 1  0.000000 75.061844 75.173714 71.482330
410 4 1  0.000000 76.365982 74.929794 71.566093
411 4 1  0.000000 76.621559 73.410622 70.473167
412 4 1  0.000000 77.894653 73.475441 69.606064
413 4 1  0.000000 79.304703 73.035904 69.655762
414 4 1  0.000000 79.507935 74.093002 71.011589
415 4 1  0.000000 80.055916 75.012726 72.473053
416 4 1  0.000000 80.331085 75.088333 73.813202
417 4 1  0.000000 80.422615 75.503151 75.149536
418 4 1  0.000000 79.205116 76.254066 74.716583
419 4 1  0.000000 79.774635 77.466187 75.006775
420 4 1  0.000000 78.710457 78.335289 76.165565
421 4 1  0.000000 77.169067 78.373428 76.766029
422 4 1  0.000000 77.373444 78.670860 78.053207
423 4 1  0.000000 75.928497 78.051506 78.034660
424 4 1  0.000000 74.328911 77.176132 79.096733
425 4 1  0.000000 73.042923 77.393570 78.186058
426 4 1  0.000000 72.618286 75.827919 79.151222
427 4 1  0.000000 71.871826 75.893631 81.101929
428 4 1  0.000000 70.746315 76.241440 82.621300
429 4 1  0.000000 71.515541 77.081108 83.010910
430 4 1  0.000000 72.637100 78.530556 82.828186
431 4 1  0.000000 72.079376 78.857956 84.121750
432 4 1  0.000000 73.464272 78.323158 84.830597
433 4 1  0.000000 75.128616 78.504143 85.079140
434 4 1  0.000000 75.585297 78.844772 86.806740
435 4 1  0.000000 77.075867 78.312874 86.364799
436 4 1  0.000000 78.327583 78.968819 84.589592
437 4 1  0.000000 77.603989 80.410011 83.243652
438 4 1  0.000000 78.076065 81.058807 82.302383
439 4 1  0.000000 78.929359 81.902344 81.428719
440 4 1  0.000000 79.299423 82.631035 80.263603
441 4 1  0.000000 80.388161 82.636414 80.837852
442 4 1  0.000000 81.276062 83.802437 81.875618
443 4 1  0.000000 82.097588 85.156876 82.844391
444 4 1  0.000000 83.124565 84.129173 83.089859
445 4 1  0.000000 82.929390 82.318169 83.554947
446 4 1  0.000000 84.265450 83.021362 83.701752
447 4 1  0.000000 83.786903 81.959473 84.910362
448 4 1  0.000000 82.644547 81.046051 85.367874
449 4 1  0.000000 83.004845 79.248207 85.323784
450 4 1  0.000000 82.387917 78.116241 86.386002
451 4 1  0.000000 83.111649 77.595673 87.321129
452 4 1  0.000000 81.588280 76.374474 86.473373
453 4 1  0.000000 80.868195 74.896584 86.173347
454 4 1  0.000000 81.171402 73.666946 85.612190
455 4 1  0.000000 81.168663 74.250145 87.176987
456 4 1  0.000000 81.259285 72.831772 88.086067
457 4 1  0.000000 79.228226 72.032600 88.264671
458 4 1  0.000000 79.675049 73.058662 89.523674
459 4 1  0.000000 80.031738 71.558395 90.031715
460 4 1  0.000000 79.126060 70.475998 90.209587
461 4 1  0.000000 80.105377 69.465462 90.827538
462 4 1  0.000000 80.225334 68.135857 91.158875
463 4 1  0.000000 79.247726 68.378052 92.492432
464 4 1  0.000000 78.282867 68.451057 93.897308
465 4 1  0.000000 77.534668 68.587402 95.304993
466 4 1  0.000000 78.469025 69.175827 96.557724
467 4 1  0.000000 77.781509 69.065300 98.326736
468 4 1  0.000000 77.247101 69.815041 99.820442
469 4 1  0.000000 78.028023 71.185638 99.295937
470 4 1  0.000000 76.852722 72.207672 99.817810
471 4 1  0.000000 75.934525 72.470848 99.323952
472 4 1  0.000000 75.523689 73.627747 100.437607
473 4 1  0.000000 75.125214 74.894653 99.979530
474 4 1  0.000000 75.926979 75.606003 98.421936
475 4 1  0.000000 77.492126 75.427086 98.316566
476 4 1  0.000000 79.328568 75.810852 97.954933
477 4 1  0.000000 80.011070 75.503990 96.229332
478 4 1  0.000000 80.079674 75.526108 95.170074
479 4 1  0.000000 80.532906 76.561699 94.384872
480 4 1  0.000000 80.079292 76.571869 92.678680
481 4 1  0.000000 81.913300 76.714386 92.899567
482 4 1  0.000000 82.427711 74.598282 92.162895
483 4 1  0.000000 83.488342 73.720818 92.988670
484 4 1  0.000000 84.734283 73.058182 92.800484
485 4 1  0.000000 85.008606 73.061783 94.543442
486 4 1  0.000000 86.097198 72.808197 95.837051
487 4 1  0.000000 85.510986 71.034142 96.953545
488 4 1  0.000000 84.932617 69.959106 97.360023
489 4 1  0.000000 86.080032 69.216110 96.367836
490 4 1  0.000000 85.624306 67.971054 95.470894
491 4 1  0.000000 85.096642 65.939278 95.298965
492 4 1  0.000000 83.359604 65.108871 94.870377
493 4 1  0.000000 81.580711 65.668411 95.381767
494 4 1  0.000000 81.845390 64.247528 95.285652
495 4 1  0.000000 82.721474 63.479874 97.045532
496 4 1  0.000000 81.624870 62.217663 96.086914
497 4 1  0.000000 82.289719 61.282597 95.265213
498 4 1  0.000000 81.090790 60.520580 93.839241
499 4 1  0.000000 81.953468 60.040234 94.856483
500 4 1  0.000000 82.766762 59.173031 94.102592
501 5 1  0.000000 78.584412 91.345070 61.547577
502 5 1  0.000000 79.067017 90.351517 61.484638
503 5 1  0.000000 79.505684 91.332687 62.125431
504 5 1  0.000000 78.797920 92.006531 63.550175
505 5 1  0.000000 78.821800 90.831451 64.588593
506 5 1  0.000000 79.369690 91.060051 65.880112
507 5 1  0.000000 78.336052 89.909019 67.064034
508 5 1  0.000000 78.553299 90.967346 68.453308
509 5 1  0.000000 78.479469 88.983047 68.886063
510 5 1  0.000000 79.476562 87.991837 68.578255
511 5 1  0.000000 80.836693 88.997856 69.273506
512 5 1  0.000000 81.206551 88.631554 70.757523
513 5 1  0.000000 82.106277 89.745499 70.872086
514 5 1  0.000000 83.241852 90.693550 69.970421
515 5 1  0.000000 83.414108 89.642296 71.319527
516 5 1  0.000000 84.911125 90.150871 72.152344
517 5 1  0.000000 85.370399 88.961662 72.252258
518 5 1  0.000000 86.266426 88.036888 71.485519
519 5 1  0.000000 85.948921 87.816139 69.749458
520 5 1  0.000000 86.507721 86.387993 70.339890
521 5 1  0.000000 86.503784 86.169907 68.594383
522 5 1  0.000000 86.482857 84.941261 66.862915
523 5 1  0.000000 87.361000 86.357170 67.532867
524 5 1  0.000000 87.893410 85.803329 65.912231
525 5 1  0.000000 89.077797 85.566505 65.636406
526 5 1  0.000000 90.429733 84.677162 64.743248
527 5 1  0.000000 91.185165 83.838066 64.186432
528 5 1  0.000000 91.464561 83.707077 62.506714
529 5 1  0.000000 93.000000 83.815010 63.058498
530 5 1  0.000000 92.520699 81.924278 62.587933
531 5 1  0.000000 93.629036 80.981544 63.324265
532 5 1  0.000000 95.218575 80.936417 64.095978
533 5 1  0.000000 94.176727 81.641479 65.406708
534 5 1  0.000000 93.930023 80.352310 66.140068
535 5 1  0.000000 92.437576 80.901283 67.658409
536 5 1  0.000000 93.021072 81.034317 69.124260
537 5 1  0.000000 93.103027 82.641670 69.941727
538 5 1  0.000000 91.692139 82.691277 70.725922
539 5 1  0.000000 90.696579 83.869522 70.657486
540 5 1  0.000000 89.349693 83.161957 70.640251
541 5 1  0.000000 89.560013 83.472305 69.565979
542 5 1  0.000000 87.877487 82.462975 70.474388
543 5 1  0.000000 86.213257 82.325714 71.129593
544 5 1  0.000000 86.532387 82.317360 72.459145
545 5 1  0.000000 86.027130 82.741592 73.897057
546 5 1  0.000000 83.995621 82.928146 73.887489
547 5 1  0.000000 83.158882 82.227982 72.714500
548 5 1  0.000000 82.682243 82.005234 74.401230
549 5 1  0.000000 82.390976 80.624153 74.450264
550 5 1  0.000000 83.924950 79.670860 74.838898
551 5 1  0.000000 85.060555 78.557465 75.960228
552 5 1  0.000000 86.194916 78.785683 75.017601
553 5 1  0.000000 87.376320 78.203896 76.163681
554 5 1  0.000000 87.148277 78.813301 77.760239
555 5 1  0.000000 86.035820 79.820396 78.606201
556 5 1  0.000000 86.778564 80.782158 78.940269
557 5 1  0.000000 85.591156 81.513817 80.513741
558 5 1  0.000000 85.367142 83.654251 80.895935
559 5 1  0.000000 85.786972 84.762238 80.088478
560 5 1  0.000000 85.588768 85.192863 78.396744
561 5 1  0.000000 87.362381 84.906807 78.389938
562 5 1  0.000000 86.732132 85.712242 76.603798
563 5 1  0.000000 87.957970 86.035149 77.270706
564 5 1  0.000000 88.538109 86.832199 76.068192
565 5 1  0.000000 89.316841 86.456421 74.937965
566 5 1  0.000000 88.493782 86.303909 73.368362
567 5 1  0.000000 89.210472 87.895462 72.374268
568 5 1  0.000000 90.606598 86.958488 72.592621
569 5 1  0.000000 91.905220 85.522667 72.961143
570 5 1  0.000000 93.279480 84.979660 73.463028
571 5 1  0.000000 92.694397 83.808983 74.762611
572 5 1  0.000000 92.532135 82.536613 75.771820
573 5 1  0.000000 91.062813 82.014473 76.339905
574 5 1  0.000000 89.724442 81.570251 75.412483
575 5 1  0.000000 90.186440 80.998062 76.888863
576 5 1  0.000000 90.475861 81.286621 78.381523
577 5 1  0.000000 90.183937 81.182106 79.869400
578 5 1  0.000000 90.761055 82.297424 81.437683
579 5 1  0.000000 90.996399 81.415924 82.756454
580 5 1  0.000000 91.133194 82.245468 81.800934
581 5 1  0.000000 92.327286 82.721176 82.529411
582 5 1  0.000000 92.952461 83.658813 83.385536
583 5 1  0.000000 93.107536 84.929268 83.169022
584 5 1  0.000000 93.869942 86.474838 81.932083
585 5 1  0.000000 94.886101 87.972435 81.786469
586 5 1  0.000000 94.091858 88.076004 80.468132
587 5 1  0.000000 93.837578 89.464073 80.660408
588 5 1  0.000000 94.254585 90.816711 82.364220
589 5 1  0.000000 94.951569 92.074600 82.481361
590 5 1  0.000000 96.563377 93.301819 82.731407
591 5 1  0.000000 97.542831 93.620316 84.359268
592 5 1  0.000000 96.611656 92.862656 85.442085
593 5 1  0.000000 97.501465 91.951149 85.435646
594 5 1  0.000000 96.885239 91.023140 86.832779
595 5 1  0.000000 96.724960 90.016571 85.802963
596 5 1  0.000000 97.450378 88.268326 85.347145
597 5 1  0.000000 95.878578 88.539825 85.813240
598 5 1  0.000000 94.606567 88.005112 87.221642
599 5 1  0.000000 94.588219 87.421783 89.383133
600 5 1  0.000000 96.049805 87.152290 90.255257
601 6 1  0.000000 81.201538 82.357399 106.723076
602 6 1  0.000000 81.522278 80.852180 106.103279
603 6 1  0.000000 82.273056 81.457672 105.638283
604 6 1  0.000000 82.109283 79.712196 105.240005
605 6 1  0.000000 81.939003 80.637009 103.978203
606 6 1  0.000000 83.209427 81.755562 103.251274
607 6 1  0.000000 83.179482 80.787476 102.268616
608 6 1  0.000000 84.529991 79.991852 101.808205
609 6 1  0.000000 85.021805 81.114960 100.395805
610 6 1  0.000000 85.242210 81.020981 98.975929
611 6 1  0.000000 86.327271 82.205460 99.471466
612 6 1  0.000000 86.850533 82.573837 100.841927
613 6 1  0.000000 88.009232 83.339226 99.871269
614 6 1  0.000000 89.476036 83.228935 100.155060
615 6 1  0.000000 89.708328 83.398781 98.404076
616 6 1  0.000000 89.220886 84.504539 97.175453
617 6 1  0.000000 90.192421 85.483383 96.930161
618 6 1  0.000000 89.963654 86.040375 98.080345