Created with TaichiMD

1000 atoms
990 bonds
  0 angles
  0 dihedrals
  0 impropers

1 atom types
1 bond types
0 angle types
0 dihedral types
0 improper types

-80.00000  80.00000 xlo xhi
-80.00000  80.00000 ylo yhi
-80.00000  80.00000 zlo zhi

Masses

1  1.0000

Atoms

  1 0 1  0.000000 117.601372  0.299056 57.559971
  2 0 1  0.000000 117.628174 -0.146467 56.215721
  3 0 1  0.000000 116.974327 -1.351319 56.083023
  4 0 1  0.000000 116.713837 -0.453342 54.668221
  5 0 1  0.000000 115.811165  0.472497 53.933109
  6 0 1  0.000000 116.203125  1.589999 53.115379
  7 0 1  0.000000 114.910477  1.723339 51.903778
  8 0 1  0.000000 114.781967  2.533787 50.606525
  9 0 1  0.000000 113.985153  1.597218 49.453983
 10 0 1  0.000000 112.938744  1.604434 50.591915
 11 0 1  0.000000 111.754349  2.547702 50.618034
 12 0 1  0.000000 111.732697  4.025065 51.239819
 13 0 1  0.000000 111.091278  5.199944 52.107464
 14 0 1  0.000000 111.553131  4.176948 53.131378
 15 0 1  0.000000 111.954521  3.808526 54.556274
 16 0 1  0.000000 113.355484  3.093627 55.313660
 17 0 1  0.000000 112.265381  2.522965 56.038929
 18 0 1  0.000000 113.055687  3.147753 57.388348
 19 0 1  0.000000 113.948868  3.050211 58.754829
 20 0 1  0.000000 113.979317  4.591747 58.913601
 21 0 1  0.000000 114.140091  5.695192 59.971916
 22 0 1  0.000000 113.999138  5.649088 61.666439
 23 0 1  0.000000 113.689041  5.757100 63.183575
 24 0 1  0.000000 112.442513  6.040644 63.955513
 25 0 1  0.000000 110.946495  5.723919 64.593498
 26 0 1  0.000000 111.150024  4.357906 64.972618
 27 0 1  0.000000 110.318649  4.562791 66.390182
 28 0 1  0.000000 109.083839  4.734423 65.527100
 29 0 1  0.000000 108.177956  3.265631 65.332626
 30 0 1  0.000000 108.037941  2.179337 64.535912
 31 0 1  0.000000 107.571693  1.691667 63.120407
 32 0 1  0.000000 106.342606  0.983695 63.912548
 33 0 1  0.000000 106.417534 -0.194773 64.963120
 34 0 1  0.000000 105.126907 -0.692384 65.496017
 35 0 1  0.000000 104.617279 -1.118555 67.125290
 36 0 1  0.000000 103.700844  0.213486 66.786896
 37 0 1  0.000000 103.667854  0.486203 68.435555
 38 0 1  0.000000 103.689880  0.695651 69.834526
 39 0 1  0.000000 104.172333  0.620434 71.429138
 40 0 1  0.000000 102.670418  1.192927 71.829147
 41 0 1  0.000000 102.476402  0.044263 72.952797
 42 0 1  0.000000 101.837212 -0.475407 74.087715
 43 0 1  0.000000 102.041862  0.638142 75.226677
 44 0 1  0.000000 100.928261  1.875407 75.664703
 45 0 1  0.000000 100.604393  3.535595 76.022598
 46 0 1  0.000000 99.032936  3.773283 76.486916
 47 0 1  0.000000 99.325859  3.580117 78.039963
 48 0 1  0.000000 99.217598  4.267397 79.419518
 49 0 1  0.000000 97.862511  3.627885 79.344070
 50 0 1  0.000000 97.958084  3.235201 80.967476
 51 0 1  0.000000 96.970528  2.408803 80.693275
 52 0 1  0.000000 95.463936  2.134902 80.377556
 53 0 1  0.000000 94.487099  1.496397 79.168915
 54 0 1  0.000000 94.866074  0.381649 80.058777
 55 0 1  0.000000 93.224358  0.669805 80.323807
 56 0 1  0.000000 93.203079 -0.760883 79.423988
 57 0 1  0.000000 91.887451 -0.932419 80.098824
 58 0 1  0.000000 92.045082 -2.377833 80.639450
 59 0 1  0.000000 90.552849 -2.509729 80.809639
 60 0 1  0.000000 90.630920 -3.649240 79.564735
 61 0 1  0.000000 89.278183 -3.618097 78.568733
 62 0 1  0.000000 87.957283 -2.740386 78.956726
 63 0 1  0.000000 87.274719 -2.043348 80.210243
 64 0 1  0.000000 86.120796 -0.855592 80.431610
 65 0 1  0.000000 86.532104 -2.289327 80.841751
 66 0 1  0.000000 86.887070 -2.993594 82.237289
 67 0 1  0.000000 85.645927 -4.106756 82.575844
 68 0 1  0.000000 86.368301 -5.449329 82.233810
 69 0 1  0.000000 84.883675 -5.610660 82.357788
 70 0 1  0.000000 83.480843 -5.860472 83.132393
 71 0 1  0.000000 82.713417 -5.509510 84.226257
 72 0 1  0.000000 82.059708 -6.609910 83.462639
 73 0 1  0.000000 80.907394 -5.829140 82.919327
 74 0 1  0.000000 80.086899 -7.121300 83.193031
 75 0 1  0.000000 80.348404 -7.459915 81.777763
 76 0 1  0.000000 80.160721 -8.616011 80.905670
 77 0 1  0.000000 79.941368 -10.380844 80.396965
 78 0 1  0.000000 81.297173 -10.675615 80.309540
 79 0 1  0.000000 81.027641 -11.315305 79.183022
 80 0 1  0.000000 80.028679 -11.189957 77.871971
 81 0 1  0.000000 80.398438 -10.195997 76.766335
 82 0 1  0.000000 80.683746 -9.225640 75.575104
 83 0 1  0.000000 79.775688 -9.542218 74.180229
 84 0 1  0.000000 79.860138 -8.924600 72.700974
 85 0 1  0.000000 80.682640 -9.410825 71.355675
 86 0 1  0.000000 80.000069 -10.907079 71.346077
 87 0 1  0.000000 78.887398 -12.033787 72.041405
 88 0 1  0.000000 78.107971 -13.427471 72.554688
 89 0 1  0.000000 77.177948 -12.944156 73.553429
 90 0 1  0.000000 75.690262 -12.992052 73.714363
 91 0 1  0.000000 74.618324 -11.895534 73.248207
 92 0 1  0.000000 74.869011 -11.476400 74.792892
 93 0 1  0.000000 74.188057 -10.549483 73.804207
 94 0 1  0.000000 73.938675 -9.937267 75.274643
 95 0 1  0.000000 74.941391 -9.338969 76.099121
 96 0 1  0.000000 75.546959 -8.035739 75.666077
 97 0 1  0.000000 75.645912 -7.245060 77.167152
 98 0 1  0.000000 77.129951 -6.619022 76.551720
 99 0 1  0.000000 78.659546 -6.649891 77.039207
100 0 1  0.000000 78.672974 -5.368265 76.301407
101 1 1  0.000000 112.338684 38.830276 92.234795
102 1 1  0.000000 111.407173 39.888290 92.639664
103 1 1  0.000000 110.642433 40.243610 91.405182
104 1 1  0.000000 110.707802 42.025936 91.524979
105 1 1  0.000000 111.573601 43.323574 91.627609
106 1 1  0.000000 110.993805 44.312298 90.638100
107 1 1  0.000000 111.652512 45.543293 90.043556
108 1 1  0.000000 112.054337 45.749836 88.709381
109 1 1  0.000000 112.198997 45.451950 87.395103
110 1 1  0.000000 110.788902 45.692898 86.739311
111 1 1  0.000000 110.813377 44.487095 85.657166
112 1 1  0.000000 110.678032 43.598316 84.330933
113 1 1  0.000000 110.689102 42.019363 84.413345
114 1 1  0.000000 111.224007 41.223537 83.250359
115 1 1  0.000000 110.495117 40.296261 82.273178
116 1 1  0.000000 110.688538 40.504276 80.582451
117 1 1  0.000000 111.090630 39.124737 79.687195
118 1 1  0.000000 111.238640 37.578362 80.368286
119 1 1  0.000000 111.184898 36.323212 79.394989
120 1 1  0.000000 110.027855 36.737133 78.669907
121 1 1  0.000000 109.496292 35.550697 78.933228
122 1 1  0.000000 109.579529 33.935982 79.046890
123 1 1  0.000000 108.426620 33.170380 78.236160
124 1 1  0.000000 107.630722 33.596519 76.779510
125 1 1  0.000000 106.494232 33.718761 75.815208
126 1 1  0.000000 106.518768 35.300976 75.950912
127 1 1  0.000000 105.487190 35.475990 77.074135
128 1 1  0.000000 105.667526 37.043777 77.042191
129 1 1  0.000000 105.849976 38.579079 77.658112
130 1 1  0.000000 106.296402 38.038353 79.051559
131 1 1  0.000000 106.070778 37.181515 80.313950
132 1 1  0.000000 106.788109 37.173035 81.653816
133 1 1  0.000000 105.625412 36.158169 82.126495
134 1 1  0.000000 105.676163 37.004562 83.483284
135 1 1  0.000000 105.071541 36.546257 84.862091
136 1 1  0.000000 103.960052 37.478382 84.585922
137 1 1  0.000000 102.598465 38.142105 84.924599
138 1 1  0.000000 101.458130 39.132118 85.184464
139 1 1  0.000000 100.050674 38.703537 85.178368
140 1 1  0.000000 99.806290 37.184299 84.699493
141 1 1  0.000000 98.443069 37.389011 84.218056
142 1 1  0.000000 98.502548 36.206806 83.101219
143 1 1  0.000000 97.147293 35.787285 83.910805
144 1 1  0.000000 95.798042 35.031662 83.901360
145 1 1  0.000000 94.966362 34.526787 82.514015
146 1 1  0.000000 94.073784 35.844662 82.737617
147 1 1  0.000000 92.511871 36.051811 83.450729
148 1 1  0.000000 92.597961 37.472179 83.931709
149 1 1  0.000000 91.416420 38.100647 83.214905
150 1 1  0.000000 90.780495 39.396908 82.550171
151 1 1  0.000000 90.858955 39.544205 80.987541
152 1 1  0.000000 89.496330 40.139061 81.210106
153 1 1  0.000000 90.461777 41.360046 80.785011
154 1 1  0.000000 90.688461 41.321465 79.234436
155 1 1  0.000000 90.607811 42.643959 78.962433
156 1 1  0.000000 91.540504 42.906349 77.598640
157 1 1  0.000000 90.568146 44.031349 78.133430
158 1 1  0.000000 89.741806 44.516502 76.884148
159 1 1  0.000000 88.435753 45.149437 76.297455
160 1 1  0.000000 87.889526 45.405876 77.694878
161 1 1  0.000000 87.243690 46.751583 78.387474
162 1 1  0.000000 86.877060 47.736961 77.382889
163 1 1  0.000000 85.638008 47.247383 78.112198
164 1 1  0.000000 84.912766 47.081604 79.631744
165 1 1  0.000000 83.604744 46.400406 80.105484
166 1 1  0.000000 82.980125 45.080151 79.403450
167 1 1  0.000000 81.950996 45.961136 79.141441
168 1 1  0.000000 80.533012 46.324238 79.131516
169 1 1  0.000000 79.269325 47.154789 79.240753
170 1 1  0.000000 77.780159 47.401875 79.302414
171 1 1  0.000000 76.452515 47.623539 79.138542
172 1 1  0.000000 75.953110 47.690525 80.464493
173 1 1  0.000000 74.374153 47.972031 80.267403
174 1 1  0.000000 73.784409 49.202942 81.281784
175 1 1  0.000000 72.393318 48.942425 82.085892
176 1 1  0.000000 71.464333 48.992462 83.205162
177 1 1  0.000000 72.107094 50.426567 83.443672
178 1 1  0.000000 71.415085 51.874832 83.579903
179 1 1  0.000000 72.081146 51.393894 84.867264
180 1 1  0.000000 72.692360 51.932262 86.294167
181 1 1  0.000000 73.872704 53.096874 86.358170
182 1 1  0.000000 74.364326 54.124153 85.309799
183 1 1  0.000000 76.016296 53.690807 84.842812
184 1 1  0.000000 75.191093 53.986332 83.705826
185 1 1  0.000000 76.700851 53.883320 83.745689
186 1 1  0.000000 76.947632 54.292480 82.300301
187 1 1  0.000000 77.397789 55.621761 81.624489
188 1 1  0.000000 78.411896 54.789318 80.694366
189 1 1  0.000000 78.481178 54.180920 79.158318
190 1 1  0.000000 77.954597 55.231888 78.185783
191 1 1  0.000000 76.385757 55.400135 77.790283
192 1 1  0.000000 76.441833 56.969425 77.902702
193 1 1  0.000000 75.295723 57.620293 77.605026
194 1 1  0.000000 73.737572 57.142731 77.795158
195 1 1  0.000000 72.792412 58.365448 78.034058
196 1 1  0.000000 72.227463 57.804840 76.739479
197 1 1  0.000000 71.764076 59.225498 76.417221
198 1 1  0.000000 70.716049 60.426910 75.811760
199 1 1  0.000000 69.959343 61.347599 74.808334
200 1 1  0.000000 71.067787 62.136295 74.255920
201 2 1  0.000000 132.870407 50.876446 64.115158
202 2 1  0.000000 133.321854 49.365646 63.806885
203 2 1  0.000000 131.990128 49.879303 63.241783
204 2 1  0.000000 132.788956 49.330700 62.005817
205 2 1  0.000000 131.389999 48.924038 61.308582
206 2 1  0.000000 131.513992 47.662312 60.492256
207 2 1  0.000000 130.127472 47.424187 59.619583
208 2 1  0.000000 130.523956 45.884689 59.375980
209 2 1  0.000000 129.412750 44.802933 59.467709
210 2 1  0.000000 128.190125 45.425125 60.305302
211 2 1  0.000000 126.656158 45.388458 60.672901
212 2 1  0.000000 127.176727 44.056423 60.571770
213 2 1  0.000000 126.233704 44.275368 61.979019
214 2 1  0.000000 125.090408 43.684189 61.285324
215 2 1  0.000000 123.827545 42.748577 61.571674
216 2 1  0.000000 122.555611 41.818253 61.799820
217 2 1  0.000000 122.616814 40.251534 62.227146
218 2 1  0.000000 121.535522 38.993713 61.970047
219 2 1  0.000000 121.774345 37.616020 62.759342
220 2 1  0.000000 120.440781 37.147114 63.566124
221 2 1  0.000000 120.239494 38.311649 64.490158
222 2 1  0.000000 119.092834 37.596870 65.322647
223 2 1  0.000000 118.083176 36.787991 66.227196
224 2 1  0.000000 117.186485 35.560295 67.070862
225 2 1  0.000000 115.612930 34.839169 66.769737
226 2 1  0.000000 114.165810 34.779888 66.443504
227 2 1  0.000000 112.807220 34.464012 66.420395
228 2 1  0.000000 111.412971 35.044476 67.292358
229 2 1  0.000000 111.055031 36.049168 68.267876
230 2 1  0.000000 109.450096 36.398678 68.826958
231 2 1  0.000000 109.039413 34.931709 68.540070
232 2 1  0.000000 107.648499 35.423000 68.126976
233 2 1  0.000000 106.402992 35.424782 69.363060
234 2 1  0.000000 105.072540 36.214802 69.225868
235 2 1  0.000000 103.576912 36.460831 69.823112
236 2 1  0.000000 102.142654 36.351524 69.590614
237 2 1  0.000000 102.836525 36.274143 70.877174
238 2 1  0.000000 102.358917 36.432587 72.347290
239 2 1  0.000000 102.671448 35.635868 73.634445
240 2 1  0.000000 102.364273 35.829449 74.975990
241 2 1  0.000000 101.284874 36.943077 74.826614
242 2 1  0.000000 101.921326 36.704201 76.115799
243 2 1  0.000000 101.177406 36.213829 77.252296
244 2 1  0.000000 99.697945 36.350292 77.826035
245 2 1  0.000000 98.886894 37.649349 77.896469
246 2 1  0.000000 97.420776 37.416813 78.398880
247 2 1  0.000000 96.722221 38.283115 77.262405
248 2 1  0.000000 95.323799 38.570938 76.661835
249 2 1  0.000000 94.723335 38.354374 75.272583
250 2 1  0.000000 93.385368 39.155842 74.608513
251 2 1  0.000000 92.193481 39.465328 75.493416
252 2 1  0.000000 90.718849 39.868706 75.407829
253 2 1  0.000000 89.462135 39.785484 74.743660
254 2 1  0.000000 88.935829 39.528919 75.955162
255 2 1  0.000000 88.398743 40.354637 74.785706
256 2 1  0.000000 87.131210 41.288410 74.512405
257 2 1  0.000000 85.649384 41.953571 74.974754
258 2 1  0.000000 84.281654 42.676296 75.223633
259 2 1  0.000000 83.428459 43.966534 75.252266
260 2 1  0.000000 82.407478 42.985165 74.609131
261 2 1  0.000000 81.924438 44.503647 75.300636
262 2 1  0.000000 81.370964 46.096336 75.130486
263 2 1  0.000000 81.262680 47.753025 75.106277
264 2 1  0.000000 80.232994 48.559277 76.196693
265 2 1  0.000000 79.037399 48.617950 75.226959
266 2 1  0.000000 78.390678 49.938873 75.962257
267 2 1  0.000000 77.159096 50.638691 76.533760
268 2 1  0.000000 75.849129 51.401230 76.834274
269 2 1  0.000000 74.599945 52.064465 77.433624
270 2 1  0.000000 73.386856 52.987194 77.898270
271 2 1  0.000000 71.941437 53.318005 78.322128
272 2 1  0.000000 71.973999 53.205006 79.842491
273 2 1  0.000000 70.670197 53.355896 79.093918
274 2 1  0.000000 70.219063 54.597080 79.876633
275 2 1  0.000000 68.919273 55.332291 79.450554
276 2 1  0.000000 67.930611 56.135746 80.267120
277 2 1  0.000000 66.565735 57.127598 80.507431
278 2 1  0.000000 65.133286 56.465065 80.398376
279 2 1  0.000000 64.781357 57.533508 81.553001
280 2 1  0.000000 64.239983 56.449467 82.514008
281 2 1  0.000000 63.242115 55.754036 83.291893
282 2 1  0.000000 62.068199 56.657284 83.923073
283 2 1  0.000000 60.968166 57.537045 84.744682
284 2 1  0.000000 60.460003 57.548965 86.139374
285 2 1  0.000000 59.091816 57.997231 86.727913
286 2 1  0.000000 58.225811 57.836243 88.215652
287 2 1  0.000000 57.585999 59.029984 88.864136
288 2 1  0.000000 58.437862 59.499542 90.204887
289 2 1  0.000000 57.737175 58.414097 91.241539
290 2 1  0.000000 56.155041 58.133728 91.462952
291 2 1  0.000000 55.761833 58.920212 92.826225
292 2 1  0.000000 55.290344 58.239414 94.248268
293 2 1  0.000000 56.187820 58.148628 95.572548
294 2 1  0.000000 55.302021 59.465996 95.848793
295 2 1  0.000000 55.716213 60.817783 96.058746
296 2 1  0.000000 56.085667 61.630764 97.290970
297 2 1  0.000000 56.147675 61.391842 98.893867
298 2 1  0.000000 56.258076 62.792946 99.435730
299 2 1  0.000000 55.456684 62.079159 100.759644
300 2 1  0.000000 55.694996 62.730667 102.381004
301 3 1  0.000000 49.747734 73.664520 101.889549
302 3 1  0.000000 50.031391 72.236359 101.956642
303 3 1  0.000000 51.287781 72.143242 101.224136
304 3 1  0.000000 51.927563 72.478439 99.863045
305 3 1  0.000000 52.451984 71.556313 99.059853
306 3 1  0.000000 53.795174 71.026901 99.576256
307 3 1  0.000000 54.843517 71.506691 100.430717
308 3 1  0.000000 55.439148 70.819893 101.778748
309 3 1  0.000000 54.634342 70.481674 103.270340
310 3 1  0.000000 54.686562 69.049271 103.995796
311 3 1  0.000000 53.323563 69.553490 103.372849
312 3 1  0.000000 52.730850 68.350449 102.272575
313 3 1  0.000000 51.711910 67.330101 102.200470
314 3 1  0.000000 51.274761 66.095329 101.001961
315 3 1  0.000000 51.115925 66.186127 99.487747
316 3 1  0.000000 50.662903 65.321747 98.264969
317 3 1  0.000000 49.701614 64.395538 98.371819
318 3 1  0.000000 49.096638 63.405369 97.259338
319 3 1  0.000000 49.388172 62.083927 98.142029
320 3 1  0.000000 48.961510 60.963547 97.543663
321 3 1  0.000000 50.387367 60.230431 97.323616
322 3 1  0.000000 50.063229 58.963814 98.054146
323 3 1  0.000000 49.180489 57.763248 97.309769
324 3 1  0.000000 47.791210 56.877201 96.968147
325 3 1  0.000000 48.284203 55.544594 96.726593
326 3 1  0.000000 49.108475 54.528664 95.778587
327 3 1  0.000000 50.762783 54.297668 95.910034
328 3 1  0.000000 51.633881 53.050529 95.633766
329 3 1  0.000000 52.228073 51.816113 95.915665
330 3 1  0.000000 53.190220 52.813080 95.141266
331 3 1  0.000000 54.471687 53.619614 94.584145
332 3 1  0.000000 55.466694 52.651768 95.026001
333 3 1  0.000000 55.684689 51.615608 93.744606
334 3 1  0.000000 56.420330 50.550480 93.081284
335 3 1  0.000000 57.733242 51.386639 92.659286
336 3 1  0.000000 58.854763 50.548138 92.147903
337 3 1  0.000000 58.924240 49.592548 90.959045
338 3 1  0.000000 60.610306 49.326599 90.869873
339 3 1  0.000000 61.316799 50.177456 91.944199
340 3 1  0.000000 62.858273 49.723476 91.665169
341 3 1  0.000000 63.733551 49.024536 90.697777
342 3 1  0.000000 65.084892 48.216560 90.151337
343 3 1  0.000000 63.894772 48.809128 89.049095
344 3 1  0.000000 64.518097 48.711941 87.714401
345 3 1  0.000000 64.145065 49.345909 86.315742
346 3 1  0.000000 63.608517 50.087006 85.013168
347 3 1  0.000000 62.367531 49.791348 84.373474
348 3 1  0.000000 63.133945 48.717113 83.827431
349 3 1  0.000000 64.467216 48.381348 83.079979
350 3 1  0.000000 64.311028 48.818748 81.693848
351 3 1  0.000000 65.146957 48.233391 80.387589
352 3 1  0.000000 65.862457 47.642998 79.315918
353 3 1  0.000000 66.807251 48.718147 78.845451
354 3 1  0.000000 68.087517 49.654526 78.961395
355 3 1  0.000000 69.281769 49.690041 77.750908
356 3 1  0.000000 68.396042 49.837440 76.509735
357 3 1  0.000000 68.473969 51.525215 76.174973
358 3 1  0.000000 68.406761 53.266048 75.962578
359 3 1  0.000000 67.090912 53.662407 76.371727
360 3 1  0.000000 65.893974 52.752522 76.881111
361 3 1  0.000000 65.014069 52.812340 77.924614
362 3 1  0.000000 64.869118 52.735165 79.342865
363 3 1  0.000000 65.703995 53.103287 80.620682
364 3 1  0.000000 66.293205 52.085876 81.428322
365 3 1  0.000000 66.453537 51.912361 82.882980
366 3 1  0.000000 65.293098 52.812130 83.695656
367 3 1  0.000000 65.964203 53.912106 84.796730
368 3 1  0.000000 65.579712 53.661217 86.054344
369 3 1  0.000000 64.258560 53.946522 86.922951
370 3 1  0.000000 63.492954 52.950401 87.691322
371 3 1  0.000000 62.100712 52.887173 87.551994
372 3 1  0.000000 60.695324 53.557663 87.684669
373 3 1  0.000000 59.331947 53.184246 87.131195
374 3 1  0.000000 58.215630 52.924683 88.067322
375 3 1  0.000000 57.739899 52.997620 86.513023
376 3 1  0.000000 57.057880 52.877640 85.035294
377 3 1  0.000000 56.809631 53.629364 83.660431
378 3 1  0.000000 57.065578 55.066292 83.497864
379 3 1  0.000000 55.809795 55.822121 84.079704
380 3 1  0.000000 56.014832 57.388737 83.484764
381 3 1  0.000000 55.892651 58.870434 83.817993
382 3 1  0.000000 55.694904 60.307034 84.434738
383 3 1  0.000000 57.032803 61.049103 84.988350
384 3 1  0.000000 58.545887 61.486355 84.175522
385 3 1  0.000000 59.992687 61.279709 83.943192
386 3 1  0.000000 61.139755 61.943714 84.261642
387 3 1  0.000000 62.079662 61.229679 82.982536
388 3 1  0.000000 62.988762 61.423412 84.027946
389 3 1  0.000000 64.321907 60.776878 84.331551
390 3 1  0.000000 63.939896 60.092987 85.785240
391 3 1  0.000000 64.299606 60.925674 87.098892
392 3 1  0.000000 64.625961 62.038227 88.172295
393 3 1  0.000000 65.425568 62.407688 89.669098
394 3 1  0.000000 63.839993 62.082169 89.812988
395 3 1  0.000000 63.913330 61.683407 91.311127
396 3 1  0.000000 64.624344 60.663784 91.444336
397 3 1  0.000000 63.468857 59.945782 91.808777
398 3 1  0.000000 64.209854 58.934673 92.592865
399 3 1  0.000000 64.768524 57.373550 92.153351
400 3 1  0.000000 66.343536 56.993465 92.027191
401 4 1  0.000000 69.742332 56.226440 71.764931
402 4 1  0.000000 68.749794 56.344910 73.026382
403 4 1  0.000000 69.443291 57.488323 73.511269
404 4 1  0.000000 68.296364 57.375488 74.514153
405 4 1  0.000000 67.910767 58.371983 75.726395
406 4 1  0.000000 66.396393 58.344090 74.956200
407 4 1  0.000000 65.832779 59.093533 73.940361
408 4 1  0.000000 65.855698 60.027252 75.380539
409 4 1  0.000000 64.829056 60.832546 74.773582
410 4 1  0.000000 63.374977 61.079178 74.798988
411 4 1  0.000000 62.172245 61.704254 74.447968
412 4 1  0.000000 60.644341 61.886608 75.073143
413 4 1  0.000000 61.389729 62.248966 76.530197
414 4 1  0.000000 60.272705 61.298462 77.220055
415 4 1  0.000000 60.629444 60.221924 78.253685
416 4 1  0.000000 60.849651 61.632904 78.927895
417 4 1  0.000000 61.969547 60.580410 79.411346
418 4 1  0.000000 63.390377 61.173912 79.492363
419 4 1  0.000000 64.561226 61.389030 78.518478
420 4 1  0.000000 65.885399 61.100090 79.368370
421 4 1  0.000000 65.811516 62.078171 80.300171
422 4 1  0.000000 67.115799 62.708488 79.623817
423 4 1  0.000000 66.357903 64.018791 80.060371
424 4 1  0.000000 65.309723 64.885185 79.775963
425 4 1  0.000000 63.752953 65.059998 79.576294
426 4 1  0.000000 63.026669 66.509521 79.403854
427 4 1  0.000000 63.839497 67.308739 78.211868
428 4 1  0.000000 64.403526 68.616417 78.980789
429 4 1  0.000000 64.567116 69.159561 77.531769
430 4 1  0.000000 64.077545 68.818802 76.048950
431 4 1  0.000000 65.393364 69.141685 75.612587
432 4 1  0.000000 66.521851 69.412209 74.405006
433 4 1  0.000000 67.757164 70.065781 74.634880
434 4 1  0.000000 69.242317 70.187279 75.146591
435 4 1  0.000000 70.729454 69.592041 75.125832
436 4 1  0.000000 70.086617 68.984238 76.367661
437 4 1  0.000000 69.708473 67.983650 77.168472
438 4 1  0.000000 70.529358 66.824303 78.032349
439 4 1  0.000000 71.460724 66.059639 76.895264
440 4 1  0.000000 72.222496 64.719955 76.829109
441 4 1  0.000000 71.919762 63.541584 78.172112
442 4 1  0.000000 73.514687 63.642056 78.449333
443 4 1  0.000000 74.465752 62.637260 78.815392
444 4 1  0.000000 74.974876 61.733654 79.731979
445 4 1  0.000000 74.723175 61.693039 81.280670
446 4 1  0.000000 73.259758 60.779812 80.821449
447 4 1  0.000000 74.081902 61.027859 82.103645
448 4 1  0.000000 72.757484 61.861046 82.128365
449 4 1  0.000000 71.673523 62.635319 82.995056
450 4 1  0.000000 70.958290 63.667084 82.283371
451 4 1  0.000000 69.869301 64.799988 83.183739
452 4 1  0.000000 70.944809 65.243156 84.131554
453 4 1  0.000000 69.799904 65.227814 85.399239
454 4 1  0.000000 70.143776 66.638054 85.020805
455 4 1  0.000000 69.408806 67.315315 86.151215
456 4 1  0.000000 68.752388 68.890900 86.619774
457 4 1  0.000000 67.312866 68.850380 86.241531
458 4 1  0.000000 66.026901 68.172653 86.321175
459 4 1  0.000000 65.383522 69.539558 86.427620
460 4 1  0.000000 64.437325 69.738266 85.173492
461 4 1  0.000000 63.820988 70.065842 83.650688
462 4 1  0.000000 62.631229 69.975121 82.907188
463 4 1  0.000000 62.964062 68.577065 83.210136
464 4 1  0.000000 62.238457 67.238258 83.548843
465 4 1  0.000000 62.106743 65.722755 83.484428
466 4 1  0.000000 61.228703 66.528969 84.388618
467 4 1  0.000000 60.921898 65.964043 85.957588
468 4 1  0.000000 60.400375 65.060944 87.092819
469 4 1  0.000000 60.907738 65.047218 88.545952
470 4 1  0.000000 59.972450 66.048752 89.448555
471 4 1  0.000000 60.600632 66.663071 90.625755
472 4 1  0.000000 59.218925 67.303246 89.970352
473 4 1  0.000000 59.837524 68.773239 89.794975
474 4 1  0.000000 59.892574 69.274452 88.173775
475 4 1  0.000000 59.947758 70.377701 87.154503
476 4 1  0.000000 60.034874 72.044975 86.929153
477 4 1  0.000000 58.735798 71.345848 86.113258
478 4 1  0.000000 57.900017 72.639442 85.362045
479 4 1  0.000000 57.208702 72.820221 86.829643
480 4 1  0.000000 56.535480 74.130920 87.011200
481 4 1  0.000000 55.282883 73.710823 87.412132
482 4 1  0.000000 55.138119 72.165344 87.785629
483 4 1  0.000000 54.541309 70.696838 88.118973
484 4 1  0.000000 55.276562 69.532890 88.007484
485 4 1  0.000000 53.792191 70.091766 87.973007
486 4 1  0.000000 53.230801 68.433090 87.923088
487 4 1  0.000000 52.376598 67.725967 89.262978
488 4 1  0.000000 50.893078 67.494896 88.657242
489 4 1  0.000000 50.903080 66.640343 90.149620
490 4 1  0.000000 51.614956 66.112770 91.478226
491 4 1  0.000000 51.163490 65.663597 92.841705
492 4 1  0.000000 51.398258 64.576729 93.984634
493 4 1  0.000000 52.054146 65.817924 94.866928
494 4 1  0.000000 53.199535 65.093773 95.274803
495 4 1  0.000000 54.305676 66.060249 95.808434
496 4 1  0.000000 54.633018 67.225983 96.757126
497 4 1  0.000000 55.942326 68.307930 96.862389
498 4 1  0.000000 56.349144 69.661842 96.217583
499 4 1  0.000000 55.806068 70.908440 95.682106
500 4 1  0.000000 57.051800 70.986908 94.722198
501 5 1  0.000000 129.397827 95.985085 76.038567
502 5 1  0.000000 129.060623 95.841118 77.617950
503 5 1  0.000000 127.917427 94.724182 77.783447
504 5 1  0.000000 128.676300 93.562981 78.181282
505 5 1  0.000000 129.126526 94.018280 79.655579
506 5 1  0.000000 130.602005 93.390602 79.970718
507 5 1  0.000000 131.961884 92.711540 79.862343
508 5 1  0.000000 132.281754 93.022758 78.237869
509 5 1  0.000000 132.592102 91.401848 78.443703
510 5 1  0.000000 132.556381 90.078270 77.901085
511 5 1  0.000000 131.080093 89.779892 77.501083
512 5 1  0.000000 130.766296 88.383888 77.052376
513 5 1  0.000000 129.910492 88.832939 75.894470
514 5 1  0.000000 128.716492 88.141106 76.573845
515 5 1  0.000000 127.132011 87.955566 76.762169
516 5 1  0.000000 125.892967 88.803947 76.333435
517 5 1  0.000000 125.681664 90.229324 77.176857
518 5 1  0.000000 124.366364 90.300606 78.088394
519 5 1  0.000000 124.292145 91.745750 78.845566
520 5 1  0.000000 123.769516 90.982681 80.079971
521 5 1  0.000000 123.586311 89.267342 80.469330
522 5 1  0.000000 122.715881 88.087204 80.593491
523 5 1  0.000000 121.535881 87.888756 81.600060
524 5 1  0.000000 121.320351 86.989899 82.907333
525 5 1  0.000000 119.753906 86.453766 83.000595
526 5 1  0.000000 120.016762 85.133224 83.627876
527 5 1  0.000000 120.065750 83.684700 83.579659
528 5 1  0.000000 118.583000 83.249901 83.095619
529 5 1  0.000000 117.399582 82.783104 82.029320
530 5 1  0.000000 116.377327 83.733444 82.902130
531 5 1  0.000000 115.311111 84.925667 83.142220
532 5 1  0.000000 113.954826 84.598389 83.748817
533 5 1  0.000000 112.831352 83.837723 83.081993
534 5 1  0.000000 111.497658 84.062317 83.291656
535 5 1  0.000000 110.002525 83.719345 83.346016
536 5 1  0.000000 109.502098 84.859482 82.265366
537 5 1  0.000000 109.191498 83.331589 82.294167
538 5 1  0.000000 107.683197 84.102180 82.422615
539 5 1  0.000000 106.381256 84.896790 82.813232
540 5 1  0.000000 104.911644 85.314171 82.405861
541 5 1  0.000000 103.926956 84.868507 83.574409
542 5 1  0.000000 102.770485 85.693291 84.134727
543 5 1  0.000000 101.943275 86.764313 84.649101
544 5 1  0.000000 101.405495 85.831482 85.818443
545 5 1  0.000000 101.296173 85.415527 87.392281
546 5 1  0.000000 100.491516 84.146202 88.283791
547 5 1  0.000000 100.350792 83.130463 87.333572
548 5 1  0.000000 98.791573 82.895660 87.411659
549 5 1  0.000000 98.667130 81.766823 86.333252
550 5 1  0.000000 97.868561 82.226364 85.335777
551 5 1  0.000000 96.531479 81.783089 85.663300
552 5 1  0.000000 94.936493 82.419037 85.917175
553 5 1  0.000000 93.432800 81.768089 86.090691
554 5 1  0.000000 92.876030 81.230400 87.466537
555 5 1  0.000000 92.074249 82.541870 87.848152
556 5 1  0.000000 91.236916 83.981544 87.823570
557 5 1  0.000000 90.110565 84.594017 88.662094
558 5 1  0.000000 88.570312 84.020699 88.106201
559 5 1  0.000000 87.614532 82.829933 88.411545
560 5 1  0.000000 86.445908 83.285667 87.407471
561 5 1  0.000000 85.100182 83.617325 86.524803
562 5 1  0.000000 84.036140 82.391769 86.378868
563 5 1  0.000000 83.292854 82.720413 85.206268
564 5 1  0.000000 82.310043 81.428436 85.036400
565 5 1  0.000000 82.019569 81.023872 83.482452
566 5 1  0.000000 80.567764 81.294250 83.531761
567 5 1  0.000000 79.078499 81.396767 82.749969
568 5 1  0.000000 78.839569 81.118027 84.203232
569 5 1  0.000000 77.507874 81.745544 83.519691
570 5 1  0.000000 76.111221 80.921638 83.286964
571 5 1  0.000000 74.665688 80.473045 82.787880
572 5 1  0.000000 73.289627 81.034836 83.541687
573 5 1  0.000000 72.137344 81.540230 82.424553
574 5 1  0.000000 70.728966 81.463974 82.030266
575 5 1  0.000000 69.866219 80.159981 82.118851
576 5 1  0.000000 68.716118 80.852432 82.056564
577 5 1  0.000000 68.386787 80.926323 83.571541
578 5 1  0.000000 67.000259 81.905190 83.150375
579 5 1  0.000000 66.753113 83.171761 82.310402
580 5 1  0.000000 65.510254 82.786797 82.950172
581 5 1  0.000000 65.384842 84.201187 83.563599
582 5 1  0.000000 64.639977 84.648148 82.128731
583 5 1  0.000000 63.672791 84.340637 80.881699
584 5 1  0.000000 62.417835 85.212029 80.068207
585 5 1  0.000000 61.646496 86.093513 78.913719
586 5 1  0.000000 61.077221 87.747742 78.475906
587 5 1  0.000000 59.769737 87.859711 79.441849
588 5 1  0.000000 58.321461 87.768196 79.759735
589 5 1  0.000000 57.313450 88.067726 80.841888
590 5 1  0.000000 57.537838 86.852135 81.815544
591 5 1  0.000000 56.530334 85.816330 82.421852
592 5 1  0.000000 54.830048 85.902336 82.484764
593 5 1  0.000000 54.339359 86.045616 83.984459
594 5 1  0.000000 55.209843 87.154396 85.033997
595 5 1  0.000000 56.570824 87.685661 85.768311
596 5 1  0.000000 58.102974 88.069298 86.208244
597 5 1  0.000000 58.413994 89.157867 85.570312
598 5 1  0.000000 59.716820 89.808998 85.012016
599 5 1  0.000000 59.729515 89.083359 83.667267
600 5 1  0.000000 61.034363 88.576164 82.834671
601 6 1  0.000000 92.491249 114.963264 75.235214
602 6 1  0.000000 94.179214 115.497734 75.038849
603 6 1  0.000000 95.061020 114.494720 75.868874
604 6 1  0.000000 94.873680 113.098564 75.889137
605 6 1  0.000000 94.432426 112.385155 77.309341
606 6 1  0.000000 93.698250 111.367767 76.435883
607 6 1  0.000000 93.597267 110.472229 77.606812
608 6 1  0.000000 92.317284 109.694626 78.051788
609 6 1  0.000000 91.257202 109.428078 79.220955
610 6 1  0.000000 90.063103 110.425278 79.382011
611 6 1  0.000000 89.215057 109.093445 79.571701
612 6 1  0.000000 88.621346 107.598213 79.162201
613 6 1  0.000000 87.702957 106.790611 78.026848
614 6 1  0.000000 88.892166 106.503654 76.863564