Created with TaichiMD

1000 atoms
990 bonds
  0 angles
  0 dihedrals
  0 impropers

1 atom types
1 bond types
0 angle types
0 dihedral types
0 improper types

-80.00000  80.00000 xlo xhi
-80.00000  80.00000 ylo yhi
-80.00000  80.00000 zlo zhi

Masses

1 10.0000

Atoms

  1 0 1  0.000000 72.235184  9.830108 89.496841
  2 0 1  0.000000 73.196671  9.719305 88.684509
  3 0 1  0.000000 74.188492 10.625616 87.870262
  4 0 1  0.000000 75.463226 10.689740 89.289795
  5 0 1  0.000000 75.167976 12.117525 88.293472
  6 0 1  0.000000 74.130371 13.184494 87.399391
  7 0 1  0.000000 73.237305 14.873383 87.976852
  8 0 1  0.000000 73.920074 15.811155 86.690041
  9 0 1  0.000000 71.974785 16.193769 86.477203
 10 0 1  0.000000 72.114365 15.213296 84.908615
 11 0 1  0.000000 71.235001 16.471569 84.598289
 12 0 1  0.000000 70.250481 16.461344 85.268684
 13 0 1  0.000000 69.191437 16.782179 84.511162
 14 0 1  0.000000 68.590416 15.697743 82.996277
 15 0 1  0.000000 69.704590 14.435135 82.347809
 16 0 1  0.000000 69.472969 13.662526 80.922737
 17 0 1  0.000000 68.694359 12.288961 80.609673
 18 0 1  0.000000 69.110062 11.530131 79.277107
 19 0 1  0.000000 68.872147 12.047036 77.440979
 20 0 1  0.000000 70.287636 12.113302 76.458191
 21 0 1  0.000000 70.535019 13.914600 75.042603
 22 0 1  0.000000 69.155968 14.173272 74.644890
 23 0 1  0.000000 70.727097 14.208493 73.880394
 24 0 1  0.000000 70.875916 13.814460 72.699623
 25 0 1  0.000000 72.171478 13.791920 71.977386
 26 0 1  0.000000 73.443680 15.004249 72.352219
 27 0 1  0.000000 74.651352 15.576372 74.056847
 28 0 1  0.000000 75.880219 14.517409 74.206322
 29 0 1  0.000000 77.711403 13.965762 74.663383
 30 0 1  0.000000 77.469620 13.942544 76.529053
 31 0 1  0.000000 77.134583 12.809930 77.001839
 32 0 1  0.000000 77.166229 12.929637 78.579201
 33 0 1  0.000000 76.999474 11.210168 78.834587
 34 0 1  0.000000 78.663101 11.651457 80.173958
 35 0 1  0.000000 79.597672 10.357409 79.661682
 36 0 1  0.000000 81.021683 10.333470 80.274681
 37 0 1  0.000000 80.598419  8.994973 80.658531
 38 0 1  0.000000 80.277641  7.356005 81.400711
 39 0 1  0.000000 79.227448  7.581656 82.436592
 40 0 1  0.000000 80.126068  7.008731 83.923904
 41 0 1  0.000000 80.441841  8.195435 85.352585
 42 0 1  0.000000 82.009613  8.029134 86.195564
 43 0 1  0.000000 83.015335  7.642079 84.645882
 44 0 1  0.000000 82.418571  9.392532 83.403137
 45 0 1  0.000000 82.380653 10.870524 83.059868
 46 0 1  0.000000 81.448502 11.707881 84.148712
 47 0 1  0.000000 81.537033 13.300182 82.710182
 48 0 1  0.000000 80.819794 12.255629 82.490997
 49 0 1  0.000000 81.173523 13.813034 82.224846
 50 0 1  0.000000 81.257996 15.538101 81.887100
 51 0 1  0.000000 79.103279 16.159605 81.693222
 52 0 1  0.000000 79.614105 17.356989 81.253372
 53 0 1  0.000000 79.867645 17.171856 79.874016
 54 0 1  0.000000 78.452080 16.662178 79.301041
 55 0 1  0.000000 77.385254 18.086208 78.948853
 56 0 1  0.000000 76.068550 17.599678 79.208824
 57 0 1  0.000000 76.092262 18.010374 77.316032
 58 0 1  0.000000 74.772186 18.812862 76.529190
 59 0 1  0.000000 73.496887 18.903416 75.683151
 60 0 1  0.000000 71.733253 19.426853 74.288551
 61 0 1  0.000000 71.915878 21.201609 73.332672
 62 0 1  0.000000 71.046112 22.400217 72.026634
 63 0 1  0.000000 70.088394 22.783047 71.155144
 64 0 1  0.000000 70.663734 23.910387 69.789162
 65 0 1  0.000000 71.616692 25.407543 68.996742
 66 0 1  0.000000 73.088821 24.764332 68.262161
 67 0 1  0.000000 73.586380 25.816807 66.925461
 68 0 1  0.000000 74.505196 26.575842 65.479965
 69 0 1  0.000000 73.129448 27.504663 65.378471
 70 0 1  0.000000 75.007172 28.169193 65.219902
 71 0 1  0.000000 76.809364 27.469284 64.579216
 72 0 1  0.000000 77.480118 26.826769 62.880444
 73 0 1  0.000000 78.296379 25.935091 61.382603
 74 0 1  0.000000 78.922218 25.539072 59.623940
 75 0 1  0.000000 77.407829 24.765968 58.827164
 76 0 1  0.000000 76.988953 23.940220 56.470730
 77 0 1  0.000000 75.595680 25.394489 56.270863
 78 0 1  0.000000 75.726601 23.706024 55.778683
 79 0 1  0.000000 74.514366 23.735933 54.611881
 80 0 1  0.000000 75.541962 23.825182 53.380634
 81 0 1  0.000000 76.046593 26.089447 52.422047
 82 0 1  0.000000 75.854584 28.094149 53.064445
 83 0 1  0.000000 76.436424 29.785995 52.903759
 84 0 1  0.000000 77.220299 28.916225 53.436012
 85 0 1  0.000000 78.037735 30.212378 54.454895
 86 0 1  0.000000 76.718246 30.854523 55.034626
 87 0 1  0.000000 77.488220 31.914970 55.499271
 88 0 1  0.000000 76.758774 32.707008 57.134380
 89 0 1  0.000000 76.753799 33.907619 58.218727
 90 0 1  0.000000 76.292328 33.200367 58.853699
 91 0 1  0.000000 77.437698 34.085041 59.680099
 92 0 1  0.000000 76.129143 34.607094 60.519600
 93 0 1  0.000000 75.643044 35.907963 61.337486
 94 0 1  0.000000 77.132912 36.055214 60.357670
 95 0 1  0.000000 76.449287 37.456760 60.505466
 96 0 1  0.000000 76.523567 37.702839 62.341442
 97 0 1  0.000000 75.709480 38.850498 61.948307
 98 0 1  0.000000 74.725830 40.472710 61.312805
 99 0 1  0.000000 75.559746 40.505287 60.156181
100 0 1  0.000000 76.998268 41.299343 59.035889
101 1 1  0.000000 69.360771 29.277285 64.018959
102 1 1  0.000000 68.636490 27.940414 64.312874
103 1 1  0.000000 67.817902 27.605825 63.281551
104 1 1  0.000000 66.227013 26.087065 63.605671
105 1 1  0.000000 67.056740 25.315933 63.565060
106 1 1  0.000000 66.196281 25.972057 65.646797
107 1 1  0.000000 65.783386 25.985241 67.002441
108 1 1  0.000000 65.841942 27.234896 69.089783
109 1 1  0.000000 67.502098 28.223280 70.365593
110 1 1  0.000000 67.991119 30.183109 70.900574
111 1 1  0.000000 66.854553 31.041689 70.890663
112 1 1  0.000000 67.182304 31.628855 72.552162
113 1 1  0.000000 68.342102 33.365623 73.294014
114 1 1  0.000000 68.880630 34.539219 73.464111
115 1 1  0.000000 69.831192 34.681133 71.950760
116 1 1  0.000000 71.224144 35.605568 71.037743
117 1 1  0.000000 71.981552 34.347027 71.395638
118 1 1  0.000000 73.779716 34.052322 71.536575
119 1 1  0.000000 74.510353 32.146160 70.567757
120 1 1  0.000000 75.475128 30.334986 70.228851
121 1 1  0.000000 76.398384 29.914303 71.777962
122 1 1  0.000000 75.254471 28.957453 72.413872
123 1 1  0.000000 75.053139 27.626507 72.896965
124 1 1  0.000000 75.947983 28.306759 73.714027
125 1 1  0.000000 75.987534 27.831440 75.790062
126 1 1  0.000000 77.671486 29.024849 75.983788
127 1 1  0.000000 77.274666 29.711842 77.297249
128 1 1  0.000000 78.063339 28.137001 77.769020
129 1 1  0.000000 77.813889 28.532785 79.447975
130 1 1  0.000000 79.220734 28.615459 79.165909
131 1 1  0.000000 79.414215 26.943752 79.681671
132 1 1  0.000000 78.697433 25.444962 80.491974
133 1 1  0.000000 77.733620 24.597822 79.963173
134 1 1  0.000000 79.757576 24.487152 79.933144
135 1 1  0.000000 80.803574 22.953032 79.730530
136 1 1  0.000000 81.797234 22.431202 78.318993
137 1 1  0.000000 81.934555 23.963871 78.684860
138 1 1  0.000000 82.873276 23.621277 77.750099
139 1 1  0.000000 84.346741 24.299593 77.880966
140 1 1  0.000000 85.836411 24.320824 78.608055
141 1 1  0.000000 85.984207 25.064379 77.591942
142 1 1  0.000000 86.196037 26.086750 77.420441
143 1 1  0.000000 85.371063 27.582569 78.122955
144 1 1  0.000000 83.390518 27.231796 78.233902
145 1 1  0.000000 83.423828 27.344677 79.901665
146 1 1  0.000000 83.870865 26.892836 81.348915
147 1 1  0.000000 83.504616 28.650860 81.282837
148 1 1  0.000000 84.180305 28.598419 82.827438
149 1 1  0.000000 82.698624 29.364464 83.538094
150 1 1  0.000000 82.774597 27.927944 84.113647
151 1 1  0.000000 83.811592 29.283873 85.466148
152 1 1  0.000000 82.743332 29.110455 87.017227
153 1 1  0.000000 82.747475 28.454082 88.361877
154 1 1  0.000000 81.996674 29.293827 88.796661
155 1 1  0.000000 80.848679 28.716854 90.257858
156 1 1  0.000000 82.169693 28.315960 90.883461
157 1 1  0.000000 81.542267 27.775684 92.887138
158 1 1  0.000000 81.661247 27.359203 94.509132
159 1 1  0.000000 82.190392 27.277176 96.160583
160 1 1  0.000000 83.103226 27.743219 96.909088
161 1 1  0.000000 83.843559 26.450499 96.677666
162 1 1  0.000000 84.126457 25.113964 95.762451
163 1 1  0.000000 82.741127 24.581694 94.889885
164 1 1  0.000000 83.019745 23.147322 96.197556
165 1 1  0.000000 81.407150 23.710205 97.066185
166 1 1  0.000000 80.503197 24.496861 97.653770
167 1 1  0.000000 80.095055 22.992449 97.280754
168 1 1  0.000000 79.649429 23.359543 98.250000
169 1 1  0.000000 77.856689 22.784771 99.397064
170 1 1  0.000000 77.361107 20.986794 99.232330
171 1 1  0.000000 76.778419 19.378166 99.041733
172 1 1  0.000000 77.273094 20.135180 100.429314
173 1 1  0.000000 76.796310 19.797161 102.037483
174 1 1  0.000000 75.159286 19.111210 102.354233
175 1 1  0.000000 74.805443 18.478132 103.590683
176 1 1  0.000000 73.727791 18.811928 105.310753
177 1 1  0.000000 73.314735 20.103033 105.360909
178 1 1  0.000000 73.256760 21.890196 103.994087
179 1 1  0.000000 72.660286 23.285954 104.898895
180 1 1  0.000000 73.424568 22.071301 103.529617
181 1 1  0.000000 71.630333 21.919264 103.654800
182 1 1  0.000000 70.011452 21.402952 103.664536
183 1 1  0.000000 68.284363 21.368284 102.726479
184 1 1  0.000000 66.252625 21.232666 103.115654
185 1 1  0.000000 65.090317 20.600517 103.837250
186 1 1  0.000000 63.681870 20.754093 104.930664
187 1 1  0.000000 62.656246 19.571272 105.179222
188 1 1  0.000000 63.815491 19.112881 106.088783
189 1 1  0.000000 64.113678 17.812744 107.041351
190 1 1  0.000000 63.281075 16.724964 107.920288
191 1 1  0.000000 62.023933 16.299057 108.002754
192 1 1  0.000000 62.762173 15.879704 109.871025
193 1 1  0.000000 64.315742 16.173431 110.576553
194 1 1  0.000000 66.199631 15.729584 111.168106
195 1 1  0.000000 66.367157 16.360924 112.541481
196 1 1  0.000000 67.959740 15.237491 113.340668
197 1 1  0.000000 69.618179 15.234923 112.738815
198 1 1  0.000000 69.938332 15.657267 111.326797
199 1 1  0.000000 70.860451 16.672819 110.778542
200 1 1  0.000000 70.395981 16.777935 109.438858
201 2 1  0.000000 85.274117 51.683990 63.356796
202 2 1  0.000000 84.776093 52.928154 64.279831
203 2 1  0.000000 84.375862 53.380402 65.663910
204 2 1  0.000000 84.527771 53.191902 67.059410
205 2 1  0.000000 84.226006 51.945625 68.441910
206 2 1  0.000000 83.726311 51.199036 69.437553
207 2 1  0.000000 83.036766 49.938213 70.158195
208 2 1  0.000000 82.390106 51.247261 71.236748
209 2 1  0.000000 82.079216 52.409927 70.502937
210 2 1  0.000000 80.445442 51.595898 69.712494
211 2 1  0.000000 79.587852 52.490067 69.949944
212 2 1  0.000000 78.646126 51.912148 70.932045
213 2 1  0.000000 77.725655 52.913994 71.373802
214 2 1  0.000000 76.918991 54.043369 71.703880
215 2 1  0.000000 75.815186 55.369320 71.770851
216 2 1  0.000000 74.837784 56.531635 72.533119
217 2 1  0.000000 73.583923 57.633041 73.128403
218 2 1  0.000000 72.326668 58.247726 74.454063
219 2 1  0.000000 71.771477 56.626766 75.372055
220 2 1  0.000000 71.740395 54.439560 76.736633
221 2 1  0.000000 71.975822 54.880627 79.421127
222 2 1  0.000000 70.312462 54.245564 78.825569
223 2 1  0.000000 69.317070 54.466427 81.126549
224 2 1  0.000000 70.352180 53.606766 82.659691
225 2 1  0.000000 71.535011 52.872986 82.674873
226 2 1  0.000000 70.897110 53.375435 84.449226
227 2 1  0.000000 69.740082 54.328247 86.018044
228 2 1  0.000000 69.284195 54.921623 87.731201
229 2 1  0.000000 70.226379 53.813660 87.833580
230 2 1  0.000000 69.887329 52.089882 88.571518
231 2 1  0.000000 68.450699 50.532688 89.003128
232 2 1  0.000000 68.648438 49.464069 89.989250
233 2 1  0.000000 69.483200 48.250496 92.101532
234 2 1  0.000000 71.342796 49.012836 92.573006
235 2 1  0.000000 71.350487 48.298710 91.732727
236 2 1  0.000000 71.195297 46.906075 92.668747
237 2 1  0.000000 70.987480 46.053967 90.729179
238 2 1  0.000000 70.095741 45.316780 89.764099
239 2 1  0.000000 69.910545 43.596012 89.528931
240 2 1  0.000000 69.346199 43.526817 88.141724
241 2 1  0.000000 69.947845 43.686703 86.028297
242 2 1  0.000000 69.747505 42.887142 84.515968
243 2 1  0.000000 68.855675 42.312870 82.916344
244 2 1  0.000000 69.124557 43.698330 81.783745
245 2 1  0.000000 70.518265 45.288059 82.129143
246 2 1  0.000000 70.456062 44.701023 80.275513
247 2 1  0.000000 71.663055 44.813644 79.469910
248 2 1  0.000000 73.370506 45.848808 79.181038
249 2 1  0.000000 75.189980 46.956226 78.508400
250 2 1  0.000000 74.407646 45.875114 76.718063
251 2 1  0.000000 74.526131 46.304058 75.015434
252 2 1  0.000000 76.025230 47.097973 75.027016
253 2 1  0.000000 76.852020 46.063904 73.772110
254 2 1  0.000000 78.024590 45.600483 72.895081
255 2 1  0.000000 78.455894 44.360023 73.103065
256 2 1  0.000000 78.359261 44.656479 71.188583
257 2 1  0.000000 79.443390 43.457222 71.883026
258 2 1  0.000000 79.704147 42.995159 70.124313
259 2 1  0.000000 80.392174 41.167564 70.260223
260 2 1  0.000000 80.745499 40.237434 69.595482
261 2 1  0.000000 81.273117 38.596210 69.954292
262 2 1  0.000000 82.692802 37.962261 70.171165
263 2 1  0.000000 82.614937 38.975128 71.816414
264 2 1  0.000000 83.272636 39.455841 73.686523
265 2 1  0.000000 82.695816 39.315746 74.873413
266 2 1  0.000000 82.219063 40.563362 75.856316
267 2 1  0.000000 81.988762 42.061039 75.318405
268 2 1  0.000000 80.556656 41.686813 76.185135
269 2 1  0.000000 78.790558 41.513767 76.692055
270 2 1  0.000000 79.186295 42.540150 78.301903
271 2 1  0.000000 79.102379 42.633446 79.128090
272 2 1  0.000000 78.460869 43.248447 78.166756
273 2 1  0.000000 78.381538 43.024899 80.539154
274 2 1  0.000000 77.555527 43.901897 82.394058
275 2 1  0.000000 76.618706 43.346230 83.153618
276 2 1  0.000000 76.694130 42.811096 84.963409
277 2 1  0.000000 77.886269 42.898663 85.857635
278 2 1  0.000000 78.436790 42.194000 87.281914
279 2 1  0.000000 76.693535 42.215805 88.117111
280 2 1  0.000000 76.913490 43.241043 88.826904
281 2 1  0.000000 76.757187 45.211727 88.840279
282 2 1  0.000000 75.457527 46.715076 88.891594
283 2 1  0.000000 76.438477 47.972313 88.085197
284 2 1  0.000000 75.963531 48.830669 86.475632
285 2 1  0.000000 75.730499 49.966309 86.855919
286 2 1  0.000000 76.998940 50.183537 86.985825
287 2 1  0.000000 76.326691 51.308865 85.861961
288 2 1  0.000000 77.511833 51.553432 84.740982
289 2 1  0.000000 77.977737 52.687637 83.020462
290 2 1  0.000000 77.969955 50.950966 81.944016
291 2 1  0.000000 78.181221 51.393204 80.347252
292 2 1  0.000000 78.994133 50.483345 79.976250
293 2 1  0.000000 80.420074 50.785740 79.820480
294 2 1  0.000000 82.119064 51.231064 80.048584
295 2 1  0.000000 83.053963 50.339722 81.338417
296 2 1  0.000000 83.222717 48.360386 81.048286
297 2 1  0.000000 82.408333 47.097919 80.656616
298 2 1  0.000000 81.652290 45.852734 81.554474
299 2 1  0.000000 81.907272 44.129341 81.434593
300 2 1  0.000000 83.019249 44.926590 81.739639
301 3 1  0.000000 71.969299 60.249374 96.074913
302 3 1  0.000000 71.517387 61.052792 97.816765
303 3 1  0.000000 71.859306 62.047657 96.797981
304 3 1  0.000000 73.801727 61.733822 96.319008
305 3 1  0.000000 75.319756 62.844925 95.301079
306 3 1  0.000000 76.913300 64.161201 94.513008
307 3 1  0.000000 78.012535 65.258713 93.144264
308 3 1  0.000000 78.330528 65.762451 94.892685
309 3 1  0.000000 79.290504 64.555580 94.600891
310 3 1  0.000000 81.009415 64.853210 94.838837
311 3 1  0.000000 82.606369 64.718231 94.530540
312 3 1  0.000000 83.038147 63.060825 93.855888
313 3 1  0.000000 82.684814 64.136223 92.152527
314 3 1  0.000000 82.750557 65.406044 91.307510
315 3 1  0.000000 82.698166 66.740730 91.492378
316 3 1  0.000000 82.052223 66.695320 89.952866
317 3 1  0.000000 80.846230 66.815811 89.416016
318 3 1  0.000000 80.857712 67.428940 87.980934
319 3 1  0.000000 80.403687 68.445900 86.710999
320 3 1  0.000000 80.201477 66.869904 86.052780
321 3 1  0.000000 78.335663 65.849358 85.730080
322 3 1  0.000000 77.213936 67.973175 85.888603
323 3 1  0.000000 76.289627 68.376968 87.151176
324 3 1  0.000000 75.275879 69.541336 87.195717
325 3 1  0.000000 74.977760 69.518440 85.246208
326 3 1  0.000000 75.264824 70.535606 83.990562
327 3 1  0.000000 73.909081 69.806854 84.470718
328 3 1  0.000000 74.207474 68.379562 83.683350
329 3 1  0.000000 73.969048 68.520683 81.943321
330 3 1  0.000000 73.118980 68.088081 81.631027
331 3 1  0.000000 73.481659 66.734207 81.876503
332 3 1  0.000000 74.574020 65.709259 82.951996
333 3 1  0.000000 74.425598 64.000534 82.552017
334 3 1  0.000000 74.874916 62.734543 83.042679
335 3 1  0.000000 75.287628 61.604111 84.547188
336 3 1  0.000000 75.246658 60.429653 83.772453
337 3 1  0.000000 75.310936 60.699944 82.452217
338 3 1  0.000000 75.130806 59.903572 80.435036
339 3 1  0.000000 76.684647 60.135353 80.214073
340 3 1  0.000000 77.863716 59.215969 80.462921
341 3 1  0.000000 78.657661 59.085812 81.753639
342 3 1  0.000000 79.951569 59.125477 81.961983
343 3 1  0.000000 80.413811 59.850899 83.135040
344 3 1  0.000000 81.781723 60.555920 82.200134
345 3 1  0.000000 82.658989 59.371971 82.303970
346 3 1  0.000000 83.754379 58.638130 83.215714
347 3 1  0.000000 84.486000 59.828472 84.068275
348 3 1  0.000000 86.005150 58.501434 83.900063
349 3 1  0.000000 86.487854 57.990520 82.624992
350 3 1  0.000000 87.054665 57.182415 84.079048
351 3 1  0.000000 88.355232 56.927017 84.698509
352 3 1  0.000000 89.140869 56.495674 86.193642
353 3 1  0.000000 89.437859 58.051918 86.431763
354 3 1  0.000000 89.140213 58.652081 87.119858
355 3 1  0.000000 89.100380 60.326469 86.441864
356 3 1  0.000000 88.974266 60.921368 84.991722
357 3 1  0.000000 87.320221 61.732155 85.129883
358 3 1  0.000000 87.726547 61.394936 83.795311
359 3 1  0.000000 87.329231 61.489143 81.928070
360 3 1  0.000000 86.802071 62.613655 82.253387
361 3 1  0.000000 86.788742 63.239265 80.974976
362 3 1  0.000000 86.602402 62.233410 80.032326
363 3 1  0.000000 85.161461 62.389660 79.331459
364 3 1  0.000000 84.410156 61.033199 78.238579
365 3 1  0.000000 84.411705 61.378944 76.570732
366 3 1  0.000000 82.781487 61.543465 77.348793
367 3 1  0.000000 81.516533 61.264023 76.017693
368 3 1  0.000000 81.172531 60.234539 77.423798
369 3 1  0.000000 80.909164 61.742012 77.978561
370 3 1  0.000000 79.407860 62.347477 77.508987
371 3 1  0.000000 78.046471 63.493668 77.040886
372 3 1  0.000000 77.325279 63.994263 76.026512
373 3 1  0.000000 76.376541 65.470001 76.060165
374 3 1  0.000000 74.682220 65.448006 75.224327
375 3 1  0.000000 73.425797 65.963577 74.974403
376 3 1  0.000000 72.979263 67.018288 74.038033
377 3 1  0.000000 71.784782 66.992432 74.513451
378 3 1  0.000000 70.712639 68.109375 75.246986
379 3 1  0.000000 70.481331 66.851166 73.342133
380 3 1  0.000000 71.010033 65.870872 72.064346
381 3 1  0.000000 70.573387 64.276131 72.042992
382 3 1  0.000000 69.215073 62.929878 70.962288
383 3 1  0.000000 68.037819 61.943172 70.251396
384 3 1  0.000000 66.921417 61.850174 68.792053
385 3 1  0.000000 67.386169 60.342865 67.735352
386 3 1  0.000000 66.240181 59.948467 65.879280
387 3 1  0.000000 65.678612 60.707897 65.097015
388 3 1  0.000000 64.348541 62.164772 66.588326
389 3 1  0.000000 63.359085 61.534725 65.200516
390 3 1  0.000000 63.930775 62.889938 65.239510
391 3 1  0.000000 64.934097 64.329102 65.345848
392 3 1  0.000000 66.034393 64.961349 64.362251
393 3 1  0.000000 64.884377 66.370239 64.905396
394 3 1  0.000000 64.696053 68.284325 65.517235
395 3 1  0.000000 64.204811 68.121956 67.545639
396 3 1  0.000000 64.981621 68.956757 67.193222
397 3 1  0.000000 66.111847 68.328644 67.549805
398 3 1  0.000000 67.274994 68.464706 68.438782
399 3 1  0.000000 68.209259 67.892593 67.692825
400 3 1  0.000000 69.127823 68.711540 67.657356
401 4 1  0.000000 88.906036 82.759285 68.880547
402 4 1  0.000000 90.220726 81.520126 68.640228
403 4 1  0.000000 90.546959 79.616074 68.531120
404 4 1  0.000000 91.088066 79.278351 67.092781
405 4 1  0.000000 90.211700 78.328209 67.077057
406 4 1  0.000000 90.134308 77.103500 66.946877
407 4 1  0.000000 91.287804 75.624344 66.455208
408 4 1  0.000000 92.503075 74.828972 66.642723
409 4 1  0.000000 92.975998 74.568428 67.698433
410 4 1  0.000000 92.315315 74.020027 69.431427
411 4 1  0.000000 92.536873 72.951813 70.809242
412 4 1  0.000000 91.021255 73.538795 71.626663
413 4 1  0.000000 89.604431 73.214516 73.067459
414 4 1  0.000000 89.849915 72.893303 74.887482
415 4 1  0.000000 87.990463 73.136314 74.768845
416 4 1  0.000000 88.513374 71.619453 74.794464
417 4 1  0.000000 87.183105 70.952080 75.100952
418 4 1  0.000000 85.841553 71.067429 75.601631
419 4 1  0.000000 85.042557 71.859627 74.959824
420 4 1  0.000000 84.382874 72.560043 76.316338
421 4 1  0.000000 84.083809 73.677017 76.537582
422 4 1  0.000000 82.669273 74.405281 78.293060
423 4 1  0.000000 82.016472 75.510452 77.863823
424 4 1  0.000000 81.715851 75.305313 79.351379
425 4 1  0.000000 80.821327 74.999832 80.452095
426 4 1  0.000000 81.829597 76.315697 81.497612
427 4 1  0.000000 82.861740 77.336281 82.980499
428 4 1  0.000000 81.787239 77.010918 84.077850
429 4 1  0.000000 81.134460 77.432579 85.401291
430 4 1  0.000000 80.918289 79.050201 85.359657
431 4 1  0.000000 79.271492 80.121155 84.617188
432 4 1  0.000000 78.308487 80.413689 83.584229
433 4 1  0.000000 78.483635 81.936378 82.893250
434 4 1  0.000000 78.719528 83.420448 82.892052
435 4 1  0.000000 79.613197 84.374519 82.350388
436 4 1  0.000000 79.671524 84.850693 84.020172
437 4 1  0.000000 78.468231 85.574753 85.060387
438 4 1  0.000000 79.112175 85.246559 85.985916
439 4 1  0.000000 79.380707 86.606514 86.600403
440 4 1  0.000000 80.443184 86.153671 87.212029
441 4 1  0.000000 81.383598 86.866875 88.933319
442 4 1  0.000000 82.707710 86.298035 87.691208
443 4 1  0.000000 82.657707 85.278793 87.050255
444 4 1  0.000000 82.747032 83.983032 88.429260
445 4 1  0.000000 82.501884 82.848907 87.691177
446 4 1  0.000000 83.285721 82.452225 89.003342
447 4 1  0.000000 84.242836 81.776176 90.373184
448 4 1  0.000000 83.363609 80.918282 90.035316
449 4 1  0.000000 82.346260 79.857376 90.067093
450 4 1  0.000000 81.923294 78.253593 89.556091
451 4 1  0.000000 81.195236 78.277573 90.321152
452 4 1  0.000000 80.521072 77.787125 91.594833
453 4 1  0.000000 79.445198 76.880302 90.053627
454 4 1  0.000000 78.388969 75.064545 90.492088
455 4 1  0.000000 78.024559 74.595688 91.396545
456 4 1  0.000000 77.261810 75.619713 92.583969
457 4 1  0.000000 75.806252 75.682739 92.587585
458 4 1  0.000000 74.566544 74.543938 92.765495
459 4 1  0.000000 73.712540 74.469559 93.837341
460 4 1  0.000000 73.866959 74.313591 95.638977
461 4 1  0.000000 72.106125 74.288704 96.625664
462 4 1  0.000000 70.929764 73.399132 95.539658
463 4 1  0.000000 71.309570 72.418884 96.285446
464 4 1  0.000000 69.709419 72.525856 96.345596
465 4 1  0.000000 68.022751 71.190132 96.103783
466 4 1  0.000000 67.467690 69.703529 96.328384
467 4 1  0.000000 66.036957 69.837540 96.140625
468 4 1  0.000000 65.106285 69.202957 97.984985
469 4 1  0.000000 65.226601 67.865334 98.863792
470 4 1  0.000000 65.170067 69.498329 98.759468
471 4 1  0.000000 64.948303 69.923393 99.594223
472 4 1  0.000000 64.267189 70.667213 100.336693
473 4 1  0.000000 62.502590 70.444664 100.624802
474 4 1  0.000000 62.318714 71.445099 100.405838
475 4 1  0.000000 62.287357 72.244026 99.009003
476 4 1  0.000000 63.065224 73.818146 99.512848
477 4 1  0.000000 64.081573 74.714043 101.001328
478 4 1  0.000000 65.694550 75.049736 100.570160
479 4 1  0.000000 66.602127 74.513138 101.380753
480 4 1  0.000000 67.938316 75.484619 101.191788
481 4 1  0.000000 68.447174 74.746277 100.745262
482 4 1  0.000000 69.765373 73.898949 101.242218
483 4 1  0.000000 71.012299 72.845566 101.186714
484 4 1  0.000000 71.893677 71.874069 100.102226
485 4 1  0.000000 73.507889 71.382278 101.373276
486 4 1  0.000000 74.450897 69.957314 101.144135
487 4 1  0.000000 76.413605 70.989258 100.598740
488 4 1  0.000000 75.710487 71.274124 101.478966
489 4 1  0.000000 76.057991 69.712151 100.641304
490 4 1  0.000000 76.604073 68.447433 99.864731
491 4 1  0.000000 77.118942 67.181046 101.002228
492 4 1  0.000000 78.734901 65.629005 102.292152
493 4 1  0.000000 78.506241 64.341110 101.360550
494 4 1  0.000000 79.002151 63.841827 102.568733
495 4 1  0.000000 78.070412 61.920990 102.066315
496 4 1  0.000000 77.352592 62.459801 103.088387
497 4 1  0.000000 78.014954 61.695675 104.626175
498 4 1  0.000000 77.915161 61.747814 106.170982
499 4 1  0.000000 79.738365 61.244568 107.040337
500 4 1  0.000000 79.974625 62.791111 106.575584
501 5 1  0.000000 101.171722 87.966179 60.431610
502 5 1  0.000000 99.547829 88.391197 60.256275
503 5 1  0.000000 98.815582 88.251945 61.674919
504 5 1  0.000000 96.931992 88.972977 61.980873
505 5 1  0.000000 95.039757 89.141403 61.979656
506 5 1  0.000000 95.900749 90.390808 62.486355
507 5 1  0.000000 95.188461 90.658127 64.295204
508 5 1  0.000000 95.300957 92.150345 65.346718
509 5 1  0.000000 97.018806 91.586395 65.271660
510 5 1  0.000000 98.799614 90.863770 66.093422
511 5 1  0.000000 100.440720 91.561653 66.452606
512 5 1  0.000000 99.874550 90.467926 65.027702
513 5 1  0.000000 101.468552 90.847580 64.413666
514 5 1  0.000000 101.167641 89.457748 64.773674
515 5 1  0.000000 102.674057 90.273949 64.209244
516 5 1  0.000000 103.948952 89.943497 64.363358
517 5 1  0.000000 104.419998 88.486259 62.757580
518 5 1  0.000000 104.979286 89.153503 61.551926
519 5 1  0.000000 104.034348 89.399338 60.590126
520 5 1  0.000000 104.712151 89.027267 59.337070
521 5 1  0.000000 104.765724 88.443344 57.769783
522 5 1  0.000000 105.791458 87.190155 57.739468
523 5 1  0.000000 107.428406 88.502838 58.332241
524 5 1  0.000000 106.999954 87.275635 58.950371
525 5 1  0.000000 107.829109 86.244278 60.153625
526 5 1  0.000000 107.271660 86.634811 61.381763
527 5 1  0.000000 106.523689 85.743744 61.901798
528 5 1  0.000000 107.377960 85.608780 63.064590
529 5 1  0.000000 106.721710 84.654030 64.435783
530 5 1  0.000000 108.051277 85.060242 65.377777
531 5 1  0.000000 106.673218 86.382469 66.030716
532 5 1  0.000000 106.543678 86.881363 67.568855
533 5 1  0.000000 106.560921 85.950424 68.660622
534 5 1  0.000000 104.866898 86.212524 67.638573
535 5 1  0.000000 103.263504 84.917381 66.800812
536 5 1  0.000000 101.819077 83.663277 66.241661
537 5 1  0.000000 101.564392 85.060074 64.914589
538 5 1  0.000000 100.574295 84.285805 63.784611
539 5 1  0.000000 99.198875 82.837769 62.737953
540 5 1  0.000000 98.132439 81.777573 63.798222
541 5 1  0.000000 98.028435 81.079460 65.151848
542 5 1  0.000000 98.461723 81.468147 66.245491
543 5 1  0.000000 97.569664 81.147743 67.442993
544 5 1  0.000000 97.343811 81.052551 68.935196
545 5 1  0.000000 97.004860 81.017151 70.325272
546 5 1  0.000000 95.208565 80.383530 71.044266
547 5 1  0.000000 94.272194 78.328789 71.236031
548 5 1  0.000000 92.676163 78.196396 72.464478
549 5 1  0.000000 92.817734 79.801331 72.689758
550 5 1  0.000000 92.332253 81.281143 72.974022
551 5 1  0.000000 91.336891 80.253334 72.064537
552 5 1  0.000000 89.661606 80.895554 73.465286
553 5 1  0.000000 88.164795 81.535210 73.758125
554 5 1  0.000000 86.177895 80.912910 73.780220
555 5 1  0.000000 85.570938 82.248665 74.038643
556 5 1  0.000000 84.577202 81.922852 72.875969
557 5 1  0.000000 83.554344 82.007782 73.655663
558 5 1  0.000000 81.790459 82.191994 73.704948
559 5 1  0.000000 82.250725 83.291092 74.900208
560 5 1  0.000000 81.451241 83.312454 76.682678
561 5 1  0.000000 81.018791 84.939720 75.350883
562 5 1  0.000000 79.685875 84.732788 74.867142
563 5 1  0.000000 80.864937 86.287025 74.625801
564 5 1  0.000000 82.605972 86.304016 73.820404
565 5 1  0.000000 83.739418 87.701050 74.364784
566 5 1  0.000000 85.104866 87.592598 74.511620
567 5 1  0.000000 85.943726 86.391899 75.947891
568 5 1  0.000000 86.781609 86.584351 77.594879
569 5 1  0.000000 87.268738 84.961983 77.488319
570 5 1  0.000000 88.630035 85.346848 79.002182
571 5 1  0.000000 89.064522 83.681679 78.030899
572 5 1  0.000000 90.175606 84.635574 77.894272
573 5 1  0.000000 90.531746 83.343369 78.757553
574 5 1  0.000000 92.246964 82.671638 77.847015
575 5 1  0.000000 92.842857 82.529854 80.262650
576 5 1  0.000000 92.597206 81.157661 80.634071
577 5 1  0.000000 91.402725 80.732857 81.499191
578 5 1  0.000000 89.865410 81.306870 80.864830
579 5 1  0.000000 88.117249 81.173393 80.475990
580 5 1  0.000000 86.906242 81.574631 81.675385
581 5 1  0.000000 85.312645 81.337311 81.326546
582 5 1  0.000000 85.774536 82.563301 81.903069
583 5 1  0.000000 85.198860 83.433662 82.663704
584 5 1  0.000000 84.029495 84.668259 81.692444
585 5 1  0.000000 85.504959 84.926765 81.359062
586 5 1  0.000000 84.715546 85.673767 80.624313
587 5 1  0.000000 85.255821 87.027443 80.977097
588 5 1  0.000000 86.543808 88.412109 80.957115
589 5 1  0.000000 88.159485 87.707153 82.021362
590 5 1  0.000000 89.457764 87.919724 81.998772
591 5 1  0.000000 90.857796 88.043633 80.719696
592 5 1  0.000000 91.640068 87.463593 80.661217
593 5 1  0.000000 91.639717 86.832138 81.919823
594 5 1  0.000000 91.422882 84.971664 82.384773
595 5 1  0.000000 91.930717 84.890518 84.182724
596 5 1  0.000000 90.458694 85.056259 85.253052
597 5 1  0.000000 90.137375 84.048714 84.517296
598 5 1  0.000000 88.801926 85.324776 85.330399
599 5 1  0.000000 88.224213 84.996346 86.875603
600 5 1  0.000000 87.065521 85.947853 87.939156
601 6 1  0.000000 101.534973 75.021133 109.819908
602 6 1  0.000000 103.399284 75.189041 109.558510
603 6 1  0.000000 104.194138 75.911705 110.289619
604 6 1  0.000000 104.800224 77.101456 108.694626
605 6 1  0.000000 104.306915 75.768074 107.778854
606 6 1  0.000000 103.764969 76.180946 106.326042
607 6 1  0.000000 104.036842 77.604042 105.748367
608 6 1  0.000000 105.202652 78.942337 106.306877
609 6 1  0.000000 104.990555 80.351585 107.684685
610 6 1  0.000000 105.706276 80.956947 106.558708
611 6 1  0.000000 104.529419 81.408539 105.822662
612 6 1  0.000000 104.475891 83.012375 106.045181
613 6 1  0.000000 105.497940 83.562126 104.724899
614 6 1  0.000000 106.302101 83.039894 104.431061
615 6 1  0.000000 108.008865 82.613708 103.699165
616 6 1  0.000000 109.306747 83.348061 104.139091