Created with TaichiMD

1000 atoms
990 bonds
  0 angles
  0 dihedrals
  0 impropers

1 atom types
1 bond types
0 angle types
0 dihedral types
0 improper types

-80.00000  80.00000 xlo xhi
-80.00000  80.00000 ylo yhi
-80.00000  80.00000 zlo zhi

Masses

1  1.0000

Atoms

  1 0 1  0.000000 104.548447 11.601974 68.088791
  2 0 1  0.000000 105.494736 11.322061 69.033691
  3 0 1  0.000000 106.646385 11.701167 67.863976
  4 0 1  0.000000 107.907814 11.301009 67.167389
  5 0 1  0.000000 108.544540 10.455365 65.860535
  6 0 1  0.000000 108.499138 12.079309 65.756065
  7 0 1  0.000000 109.141907 13.363936 64.923035
  8 0 1  0.000000 108.879066 12.465833 63.509689
  9 0 1  0.000000 108.779808 11.308952 62.321648
 10 0 1  0.000000 108.182213 10.486265 61.085979
 11 0 1  0.000000 106.920937 10.461303 62.073238
 12 0 1  0.000000 106.026421 10.414238 63.249908
 13 0 1  0.000000 106.109604  9.075107 63.593452
 14 0 1  0.000000 104.643875  8.954223 63.882023
 15 0 1  0.000000 105.709953  8.258238 64.808960
 16 0 1  0.000000 104.891899  7.124416 64.968697
 17 0 1  0.000000 103.405487  7.106874 65.071480
 18 0 1  0.000000 102.060455  7.130746 65.857719
 19 0 1  0.000000 101.922844  6.014041 66.878960
 20 0 1  0.000000 101.078712  5.982596 68.075203
 21 0 1  0.000000 99.835976  5.377387 68.338242
 22 0 1  0.000000 98.352737  5.572022 68.750633
 23 0 1  0.000000 97.050774  5.181628 67.833611
 24 0 1  0.000000 97.576149  5.637405 66.271477
 25 0 1  0.000000 96.838127  6.219462 65.315399
 26 0 1  0.000000 97.477104  7.730558 64.884972
 27 0 1  0.000000 98.710358  8.697631 65.077538
 28 0 1  0.000000 98.981766  9.712070 66.167702
 29 0 1  0.000000 99.734917 10.995876 66.582825
 30 0 1  0.000000 98.369499 11.467683 67.330849
 31 0 1  0.000000 98.771736 11.021242 68.749596
 32 0 1  0.000000 99.080879 10.041559 69.977631
 33 0 1  0.000000 100.782242  9.701679 70.052498
 34 0 1  0.000000 100.413422 11.132985 70.914871
 35 0 1  0.000000 100.361450 11.146572 72.665070
 36 0 1  0.000000 99.334167 12.112991 73.442688
 37 0 1  0.000000 98.995102 12.187439 75.017464
 38 0 1  0.000000 98.068848 13.044227 75.819214
 39 0 1  0.000000 97.015060 12.373280 74.841438
 40 0 1  0.000000 95.950974 12.524524 73.815704
 41 0 1  0.000000 94.744919 11.857233 73.064384
 42 0 1  0.000000 93.120949 11.729044 72.491920
 43 0 1  0.000000 92.314644 10.642406 72.168846
 44 0 1  0.000000 92.578667 10.061913 73.521729
 45 0 1  0.000000 91.036812 10.709030 73.420708
 46 0 1  0.000000 91.370537  9.422142 74.392509
 47 0 1  0.000000 90.538879  8.197895 74.789162
 48 0 1  0.000000 89.134392  8.415532 75.499550
 49 0 1  0.000000 88.697487  7.018439 75.589249
 50 0 1  0.000000 87.771034  5.906233 74.952545
 51 0 1  0.000000 88.142799  4.337666 74.762199
 52 0 1  0.000000 87.562202  2.933631 74.455246
 53 0 1  0.000000 86.133400  2.779192 74.068741
 54 0 1  0.000000 85.943306  2.709214 72.570961
 55 0 1  0.000000 86.011047  1.045709 72.742928
 56 0 1  0.000000 86.567589  0.758318 71.316490
 57 0 1  0.000000 87.641174 -0.072246 72.188499
 58 0 1  0.000000 88.905533 -0.454835 71.791901
 59 0 1  0.000000 89.907715 -1.379215 71.917114
 60 0 1  0.000000 89.300102 -2.612324 72.250168
 61 0 1  0.000000 89.514992 -3.804554 73.037270
 62 0 1  0.000000 89.355370 -4.514011 74.472748
 63 0 1  0.000000 90.418602 -5.655798 74.058662
 64 0 1  0.000000 89.675850 -6.867939 74.248596
 65 0 1  0.000000 90.078773 -8.383106 74.523613
 66 0 1  0.000000 89.339088 -8.994491 75.798973
 67 0 1  0.000000 87.893372 -9.544261 76.010284
 68 0 1  0.000000 86.570084 -10.109419 76.221992
 69 0 1  0.000000 85.379753 -9.143612 76.289032
 70 0 1  0.000000 85.316444 -9.792673 74.682274
 71 0 1  0.000000 85.268410 -8.451053 73.893845
 72 0 1  0.000000 84.473541 -7.393592 73.158432
 73 0 1  0.000000 82.987640 -6.937937 72.530701
 74 0 1  0.000000 81.969841 -7.935206 72.881912
 75 0 1  0.000000 80.391190 -7.947675 73.295860
 76 0 1  0.000000 80.833572 -7.170397 74.544624
 77 0 1  0.000000 81.535126 -8.104731 75.745667
 78 0 1  0.000000 81.835213 -9.052718 77.121361
 79 0 1  0.000000 81.207916 -8.278303 78.462196
 80 0 1  0.000000 79.825493 -7.922676 78.656143
 81 0 1  0.000000 78.198013 -8.213419 78.797142
 82 0 1  0.000000 76.549454 -8.220361 78.950302
 83 0 1  0.000000 75.111580 -7.404287 78.914963
 84 0 1  0.000000 73.488174 -7.389150 78.929489
 85 0 1  0.000000 72.427177 -6.608753 78.120262
 86 0 1  0.000000 71.488930 -5.440638 78.698189
 87 0 1  0.000000 72.587639 -5.065654 77.616081
 88 0 1  0.000000 72.623810 -3.535437 76.822784
 89 0 1  0.000000 73.921516 -2.669343 76.745995
 90 0 1  0.000000 73.896011 -1.904246 78.172844
 91 0 1  0.000000 74.615700 -1.003730 77.061577
 92 0 1  0.000000 76.289665 -1.137626 76.682823
 93 0 1  0.000000 76.268929  0.386815 76.708145
 94 0 1  0.000000 76.839287  0.657323 75.415916
 95 0 1  0.000000 76.152672  1.561004 74.576881
 96 0 1  0.000000 76.696426  2.609099 75.744949
 97 0 1  0.000000 76.693054  3.207047 74.492157
 98 0 1  0.000000 76.979568  4.755355 74.935173
 99 0 1  0.000000 76.177689  5.907640 75.390305
100 0 1  0.000000 77.082657  7.000144 75.166275
101 1 1  0.000000 118.572815 30.327526 77.867004
102 1 1  0.000000 118.053993 31.669186 78.349121
103 1 1  0.000000 117.865242 33.117016 78.106049
104 1 1  0.000000 116.953102 34.334778 78.636925
105 1 1  0.000000 117.144417 35.021240 80.007645
106 1 1  0.000000 116.417618 33.929401 81.106201
107 1 1  0.000000 115.666679 33.236694 82.303596
108 1 1  0.000000 114.757095 33.182846 83.547234
109 1 1  0.000000 114.596779 31.892996 84.380836
110 1 1  0.000000 115.080208 32.913094 85.502968
111 1 1  0.000000 113.750397 33.082413 86.415291
112 1 1  0.000000 113.099396 33.019035 87.982002
113 1 1  0.000000 112.792366 32.848358 89.501373
114 1 1  0.000000 111.836632 31.670536 88.811966
115 1 1  0.000000 110.755836 30.533699 89.223236
116 1 1  0.000000 111.320549 29.700138 88.203140
117 1 1  0.000000 110.273003 29.414621 87.211494
118 1 1  0.000000 108.640526 29.432854 87.008621
119 1 1  0.000000 107.408066 29.179359 86.178574
120 1 1  0.000000 106.848183 29.793657 84.775139
121 1 1  0.000000 105.362434 30.490755 84.375458
122 1 1  0.000000 103.914925 30.412146 83.886452
123 1 1  0.000000 102.413940 30.035038 84.051460
124 1 1  0.000000 101.459091 31.337477 83.809738
125 1 1  0.000000 100.762741 31.288082 82.515900
126 1 1  0.000000 100.268188 30.486208 81.150993
127 1 1  0.000000 99.353371 29.520472 80.182030
128 1 1  0.000000 98.524750 30.564058 79.621422
129 1 1  0.000000 97.611099 30.797997 78.349510
130 1 1  0.000000 96.047119 31.218874 77.876862
131 1 1  0.000000 94.786819 32.186207 78.238152
132 1 1  0.000000 93.670059 31.623144 77.202248
133 1 1  0.000000 93.061584 31.826042 78.513260
134 1 1  0.000000 92.127525 33.116333 78.717293
135 1 1  0.000000 90.779953 32.924324 77.933228
136 1 1  0.000000 90.334076 34.246590 77.839256
137 1 1  0.000000 88.701660 34.475796 78.309715
138 1 1  0.000000 87.765930 33.453194 79.290344
139 1 1  0.000000 86.711273 34.062336 78.346596
140 1 1  0.000000 85.576080 35.294590 77.918259
141 1 1  0.000000 84.281288 36.278618 78.275887
142 1 1  0.000000 83.660088 37.333984 79.075127
143 1 1  0.000000 82.958214 36.089668 78.162727
144 1 1  0.000000 81.543854 35.419029 78.040092
145 1 1  0.000000 80.100769 35.285667 77.830971
146 1 1  0.000000 78.685089 34.706329 77.794586
147 1 1  0.000000 78.134918 35.195572 79.148254
148 1 1  0.000000 76.701805 35.044601 78.838356
149 1 1  0.000000 75.548317 34.153103 78.393051
150 1 1  0.000000 74.116982 34.163982 78.826538
151 1 1  0.000000 73.789101 34.019623 80.494415
152 1 1  0.000000 72.566513 34.542969 81.235771
153 1 1  0.000000 72.291847 34.560341 82.738319
154 1 1  0.000000 71.828682 35.343933 84.198524
155 1 1  0.000000 72.832291 36.512943 84.537361
156 1 1  0.000000 73.477486 37.772099 85.340889
157 1 1  0.000000 72.802956 37.666447 86.641205
158 1 1  0.000000 71.192688 37.363766 86.778152
159 1 1  0.000000 70.031013 37.842884 87.853668
160 1 1  0.000000 69.208023 37.436543 89.220581
161 1 1  0.000000 68.096947 38.454159 89.397583
162 1 1  0.000000 67.621346 39.149345 88.194504
163 1 1  0.000000 66.620728 40.008541 87.640930
164 1 1  0.000000 66.653030 40.710308 86.269180
165 1 1  0.000000 67.725777 41.740864 86.057823
166 1 1  0.000000 68.808372 42.560478 86.695732
167 1 1  0.000000 69.692848 43.315929 87.657936
168 1 1  0.000000 70.452591 43.875835 88.834419
169 1 1  0.000000 71.552505 42.725796 88.214256
170 1 1  0.000000 72.908844 42.330509 87.274948
171 1 1  0.000000 72.627640 42.115181 85.782463
172 1 1  0.000000 72.316528 42.767517 84.270401
173 1 1  0.000000 72.574356 44.008282 83.138252
174 1 1  0.000000 71.573990 45.149624 83.625572
175 1 1  0.000000 73.046570 45.934792 83.409340
176 1 1  0.000000 74.184639 46.704765 83.023247
177 1 1  0.000000 75.222496 46.839264 84.094269
178 1 1  0.000000 75.575165 47.132610 82.692558
179 1 1  0.000000 76.860191 47.350716 83.847305
180 1 1  0.000000 76.708549 48.924778 84.072205
181 1 1  0.000000 78.252495 49.343624 83.705956
182 1 1  0.000000 78.170212 50.585838 82.824631
183 1 1  0.000000 77.736351 50.322899 81.404953
184 1 1  0.000000 77.995567 51.638367 80.526558
185 1 1  0.000000 78.312859 51.994400 79.188736
186 1 1  0.000000 78.209969 53.213974 79.947304
187 1 1  0.000000 78.675987 53.575066 78.613907
188 1 1  0.000000 78.586029 55.020054 79.132797
189 1 1  0.000000 79.693283 55.498665 80.118065
190 1 1  0.000000 80.215988 55.655201 81.444557
191 1 1  0.000000 79.052063 56.086140 82.549240
192 1 1  0.000000 78.195442 57.372334 82.531311
193 1 1  0.000000 78.119553 58.714397 83.481712
194 1 1  0.000000 77.592606 59.953430 82.769836
195 1 1  0.000000 78.812881 60.810112 82.529289
196 1 1  0.000000 77.873978 60.919464 81.376106
197 1 1  0.000000 77.401237 60.252026 80.048782
198 1 1  0.000000 78.621414 59.786160 78.894028
199 1 1  0.000000 79.290581 60.908249 78.104355
200 1 1  0.000000 79.976952 61.802876 77.039299
201 2 1  0.000000 123.987885 34.865868 54.731941
202 2 1  0.000000 123.602783 35.651768 56.061314
203 2 1  0.000000 122.438438 35.756184 57.071236
204 2 1  0.000000 121.490906 36.771996 57.636189
205 2 1  0.000000 121.921181 36.807331 59.175308
206 2 1  0.000000 122.162804 38.325626 59.163719
207 2 1  0.000000 121.887947 39.487236 60.202435
208 2 1  0.000000 120.832710 39.987743 61.211998
209 2 1  0.000000 119.326027 40.554428 61.989063
210 2 1  0.000000 117.742599 41.054981 62.252277
211 2 1  0.000000 117.903458 41.820122 63.573730
212 2 1  0.000000 116.768471 40.731434 63.313583
213 2 1  0.000000 115.667465 40.407742 64.505730
214 2 1  0.000000 115.846466 39.203598 65.411140
215 2 1  0.000000 114.736565 40.011333 65.887901
216 2 1  0.000000 113.986298 40.233696 67.273582
217 2 1  0.000000 113.296768 40.700169 68.478966
218 2 1  0.000000 112.436859 40.762211 69.634415
219 2 1  0.000000 111.848976 39.662094 68.669868
220 2 1  0.000000 110.229591 40.041294 68.713287
221 2 1  0.000000 109.559517 40.380226 69.969910
222 2 1  0.000000 108.434906 40.342136 70.993973
223 2 1  0.000000 107.073990 40.971462 71.252113
224 2 1  0.000000 106.014053 40.421700 70.405144
225 2 1  0.000000 104.502625 40.529823 70.741463
226 2 1  0.000000 103.332718 39.943966 70.115265
227 2 1  0.000000 101.748055 40.194855 70.454414
228 2 1  0.000000 100.651505 39.660931 71.461113
229 2 1  0.000000 99.061981 39.531616 70.877304
230 2 1  0.000000 98.434471 40.899906 71.045746
231 2 1  0.000000 97.373001 40.885433 71.990669
232 2 1  0.000000 96.849655 39.726669 71.061897
233 2 1  0.000000 95.515503 40.391430 70.596397
234 2 1  0.000000 94.328056 41.100010 69.821045
235 2 1  0.000000 94.411438 40.387714 68.482681
236 2 1  0.000000 92.994438 39.863209 68.638023
237 2 1  0.000000 91.748611 39.570599 67.990227
238 2 1  0.000000 91.015907 40.906487 68.136551
239 2 1  0.000000 89.556328 40.539585 67.926857
240 2 1  0.000000 88.648758 40.594048 66.892853
241 2 1  0.000000 87.995148 42.027454 66.628334
242 2 1  0.000000 88.457359 42.858555 65.493240
243 2 1  0.000000 88.155411 43.277115 64.178902
244 2 1  0.000000 87.073021 44.151062 64.266922
245 2 1  0.000000 86.049896 45.327057 64.165138
246 2 1  0.000000 84.743202 45.769394 65.158295
247 2 1  0.000000 84.137764 44.737671 66.017181
248 2 1  0.000000 84.727432 43.725430 67.076530
249 2 1  0.000000 85.010155 44.276806 68.701050
250 2 1  0.000000 85.402847 43.414021 69.956024
251 2 1  0.000000 84.307968 43.903385 70.781082
252 2 1  0.000000 85.152153 43.610638 72.000130
253 2 1  0.000000 84.274086 42.638668 73.112587
254 2 1  0.000000 82.937119 41.771217 72.541298
255 2 1  0.000000 81.986412 42.113083 73.831154
256 2 1  0.000000 82.225906 43.623840 74.381950
257 2 1  0.000000 81.696045 45.081070 74.983391
258 2 1  0.000000 80.857330 43.888233 75.001167
259 2 1  0.000000 79.716415 43.265251 76.152847
260 2 1  0.000000 79.014465 42.190796 76.917358
261 2 1  0.000000 77.390373 42.115337 76.895370
262 2 1  0.000000 75.939964 42.555382 76.771477
263 2 1  0.000000 74.295898 42.524433 76.541237
264 2 1  0.000000 74.174057 44.075588 76.784325
265 2 1  0.000000 73.283142 44.844078 77.505745
266 2 1  0.000000 72.822647 46.189686 78.076248
267 2 1  0.000000 71.579369 47.169312 78.388008
268 2 1  0.000000 71.840347 48.573460 78.768585
269 2 1  0.000000 71.540321 49.872215 78.106873
270 2 1  0.000000 70.576630 50.874451 78.772041
271 2 1  0.000000 70.959076 52.423901 78.949814
272 2 1  0.000000 70.382736 53.347359 77.976532
273 2 1  0.000000 71.231789 54.868259 77.960548
274 2 1  0.000000 72.407364 55.320183 78.833649
275 2 1  0.000000 73.063164 55.560638 80.158455
276 2 1  0.000000 72.999191 57.246006 79.972832
277 2 1  0.000000 72.391991 58.567219 80.353920
278 2 1  0.000000 71.947922 60.023705 80.585037
279 2 1  0.000000 72.527313 61.292507 81.037094
280 2 1  0.000000 73.584457 62.291630 81.772774
281 2 1  0.000000 74.436554 62.512756 83.026115
282 2 1  0.000000 74.001999 62.221508 84.538383
283 2 1  0.000000 74.892090 63.409061 84.524269
284 2 1  0.000000 74.365158 64.010895 85.738503
285 2 1  0.000000 74.857811 64.612732 87.232925
286 2 1  0.000000 73.558098 64.901794 87.900505
287 2 1  0.000000 72.129631 64.381378 88.679939
288 2 1  0.000000 72.114082 63.940159 90.318939
289 2 1  0.000000 72.883858 62.724762 90.874886
290 2 1  0.000000 71.417656 62.500469 90.121330
291 2 1  0.000000 70.935951 61.046806 90.234688
292 2 1  0.000000 69.518250 60.337528 89.949661
293 2 1  0.000000 70.195656 59.186161 89.273285
294 2 1  0.000000 69.215965 58.063686 89.111176
295 2 1  0.000000 69.217651 57.388351 87.706863
296 2 1  0.000000 70.216461 56.222290 87.251045
297 2 1  0.000000 69.515671 55.219406 88.004730
298 2 1  0.000000 70.784508 54.717392 87.942680
299 2 1  0.000000 69.923965 53.370708 87.333908
300 2 1  0.000000 70.628754 52.726974 88.509094
301 3 1  0.000000 62.719398 66.972359 109.444550
302 3 1  0.000000 62.654739 66.346977 108.052780
303 3 1  0.000000 61.282310 67.154083 108.418663
304 3 1  0.000000 62.356983 67.230080 107.093697
305 3 1  0.000000 61.279243 67.387688 105.992706
306 3 1  0.000000 59.780983 67.766663 106.298080
307 3 1  0.000000 60.322697 67.995300 104.875168
308 3 1  0.000000 59.953957 69.291107 104.157425
309 3 1  0.000000 59.781097 70.280373 102.965019
310 3 1  0.000000 60.161469 71.846375 102.761078
311 3 1  0.000000 61.030312 71.111389 101.549156
312 3 1  0.000000 61.208801 70.018013 100.247986
313 3 1  0.000000 61.346924 69.131302 98.973701
314 3 1  0.000000 62.436108 69.923393 97.932968
315 3 1  0.000000 61.907566 69.335144 96.888237
316 3 1  0.000000 61.803967 67.894386 96.765533
317 3 1  0.000000 62.233883 68.677216 95.308685
318 3 1  0.000000 60.722313 68.824516 94.942482
319 3 1  0.000000 60.751175 68.210754 93.506203
320 3 1  0.000000 60.632774 67.322922 92.275459
321 3 1  0.000000 61.476574 66.107155 91.799301
322 3 1  0.000000 62.182499 64.675667 92.087112
323 3 1  0.000000 62.859875 63.287884 91.709084
324 3 1  0.000000 63.917683 62.226521 91.319550
325 3 1  0.000000 63.445751 60.900311 90.771027
326 3 1  0.000000 64.652550 61.693504 90.894745
327 3 1  0.000000 65.033325 60.380222 89.909538
328 3 1  0.000000 65.211952 59.275269 88.715034
329 3 1  0.000000 65.432724 57.769909 88.146332
330 3 1  0.000000 65.074615 56.479946 87.522430
331 3 1  0.000000 65.563087 55.149540 86.706902
332 3 1  0.000000 64.582489 54.751888 85.456696
333 3 1  0.000000 63.673904 55.056168 84.252853
334 3 1  0.000000 64.437630 55.365208 83.088470
335 3 1  0.000000 65.770027 55.459229 82.136589
336 3 1  0.000000 65.760597 53.856510 81.970482
337 3 1  0.000000 66.509506 53.226364 80.819038
338 3 1  0.000000 65.973839 52.040688 81.791740
339 3 1  0.000000 64.629692 51.203609 81.529892
340 3 1  0.000000 63.710812 50.975655 82.416885
341 3 1  0.000000 63.863789 49.681141 83.369087
342 3 1  0.000000 63.923283 48.743965 84.735466
343 3 1  0.000000 64.170769 47.470081 85.519714
344 3 1  0.000000 63.371201 46.784626 84.576767
345 3 1  0.000000 62.979462 45.482162 85.165741
346 3 1  0.000000 63.238281 44.207481 84.473999
347 3 1  0.000000 62.167576 43.075989 84.864922
348 3 1  0.000000 62.648716 41.729481 84.427338
349 3 1  0.000000 62.416729 40.746223 83.544884
350 3 1  0.000000 63.148613 39.628582 82.527977
351 3 1  0.000000 64.320518 39.829571 83.169403
352 3 1  0.000000 65.028587 38.693855 82.351242
353 3 1  0.000000 66.108894 39.001354 81.606941
354 3 1  0.000000 66.967560 37.834747 81.149818
355 3 1  0.000000 67.888481 38.362667 81.944733
356 3 1  0.000000 68.752220 39.323200 82.801147
357 3 1  0.000000 69.472549 40.500965 82.731781
358 3 1  0.000000 69.747032 40.988930 81.216690
359 3 1  0.000000 68.742043 42.190327 81.746758
360 3 1  0.000000 67.606339 43.145332 82.346825
361 3 1  0.000000 68.171951 43.919643 81.248451
362 3 1  0.000000 68.403442 45.063671 82.241150
363 3 1  0.000000 67.747009 45.209118 83.564812
364 3 1  0.000000 67.860840 46.771839 83.946106
365 3 1  0.000000 68.387619 47.989765 83.305847
366 3 1  0.000000 69.595589 48.470501 84.337090
367 3 1  0.000000 69.623421 49.589298 83.250648
368 3 1  0.000000 70.973648 50.084007 83.774803
369 3 1  0.000000 72.378220 50.043026 84.060555
370 3 1  0.000000 72.466156 51.304932 83.110428
371 3 1  0.000000 72.347916 52.943062 82.623047
372 3 1  0.000000 71.902122 53.516151 83.810768
373 3 1  0.000000 70.552803 54.064762 83.159889
374 3 1  0.000000 69.365738 54.690975 83.909088
375 3 1  0.000000 69.223953 56.168571 83.459648
376 3 1  0.000000 68.893692 57.614056 83.826767
377 3 1  0.000000 68.094070 58.307049 82.641479
378 3 1  0.000000 69.232643 58.605877 83.877472
379 3 1  0.000000 68.828026 59.803501 85.039055
380 3 1  0.000000 69.085388 61.043106 86.043243
381 3 1  0.000000 68.637703 62.414658 86.407990
382 3 1  0.000000 67.387779 61.509697 86.854599
383 3 1  0.000000 67.766800 63.019115 87.447586
384 3 1  0.000000 67.136971 64.489136 87.239761
385 3 1  0.000000 68.024643 65.806587 86.897057
386 3 1  0.000000 69.216423 66.487534 87.504662
387 3 1  0.000000 69.741913 67.004066 88.978355
388 3 1  0.000000 70.885132 67.876686 89.393463
389 3 1  0.000000 70.059196 68.577156 90.443504
390 3 1  0.000000 70.746658 69.051819 91.691406
391 3 1  0.000000 71.645287 70.282784 92.304131
392 3 1  0.000000 72.201622 69.561440 93.402809
393 3 1  0.000000 73.534050 70.277718 93.478752
394 3 1  0.000000 73.165009 69.607887 94.807968
395 3 1  0.000000 73.472809 68.036461 95.230186
396 3 1  0.000000 74.823715 67.838371 96.028748
397 3 1  0.000000 75.463768 68.593056 97.375824
398 3 1  0.000000 76.807098 68.702347 98.077629
399 3 1  0.000000 78.153221 68.024521 98.167374
400 3 1  0.000000 79.332535 67.225655 98.547134
401 4 1  0.000000 67.790627 63.744781 67.644104
402 4 1  0.000000 67.825455 63.888657 69.148499
403 4 1  0.000000 66.515991 63.772121 68.623314
404 4 1  0.000000 65.829437 63.151218 69.768433
405 4 1  0.000000 64.475914 62.226387 69.953583
406 4 1  0.000000 64.256721 62.763332 71.428146
407 4 1  0.000000 64.294121 61.110634 71.624855
408 4 1  0.000000 64.051826 60.211678 72.988945
409 4 1  0.000000 64.206039 60.387642 74.551910
410 4 1  0.000000 64.845276 61.648846 75.222923
411 4 1  0.000000 64.912827 61.362217 76.742516
412 4 1  0.000000 64.179703 61.287971 78.068314
413 4 1  0.000000 63.433685 62.514935 78.669502
414 4 1  0.000000 64.598236 62.265194 79.400040
415 4 1  0.000000 64.887131 63.602600 80.181870
416 4 1  0.000000 65.382118 64.240189 81.418999
417 4 1  0.000000 66.174240 65.176590 82.251122
418 4 1  0.000000 66.865417 65.805916 81.070282
419 4 1  0.000000 68.123009 66.705765 80.780151
420 4 1  0.000000 68.417679 67.468803 79.566849
421 4 1  0.000000 69.020752 66.828110 78.197456
422 4 1  0.000000 69.940208 67.674614 77.519211
423 4 1  0.000000 71.141571 67.855019 76.484352
424 4 1  0.000000 71.209412 68.029282 74.945587
425 4 1  0.000000 72.746735 67.544304 74.713234
426 4 1  0.000000 72.029930 67.344917 73.144783
427 4 1  0.000000 71.395485 67.772797 71.759926
428 4 1  0.000000 71.513062 69.248688 71.229179
429 4 1  0.000000 71.057510 69.960258 69.803970
430 4 1  0.000000 70.363922 70.379082 71.067688
431 4 1  0.000000 69.740715 71.094795 72.569420
432 4 1  0.000000 69.196655 72.406494 73.671623
433 4 1  0.000000 70.453400 72.735519 74.563911
434 4 1  0.000000 70.075111 74.332504 74.935120
435 4 1  0.000000 70.517143 74.446922 76.564232
436 4 1  0.000000 71.595352 74.662437 77.660660
437 4 1  0.000000 73.027733 74.588692 78.462456
438 4 1  0.000000 73.825134 73.584038 77.304245
439 4 1  0.000000 74.949516 74.663689 76.574738
440 4 1  0.000000 75.814926 75.930550 76.776764
441 4 1  0.000000 76.738243 74.910744 77.459801
442 4 1  0.000000 77.479050 73.660713 77.449066
443 4 1  0.000000 78.051407 72.689384 76.818062
444 4 1  0.000000 78.428268 71.209145 77.213310
445 4 1  0.000000 78.884354 70.122078 76.389198
446 4 1  0.000000 78.667709 68.464203 76.476486
447 4 1  0.000000 78.836235 67.879829 77.977211
448 4 1  0.000000 79.081535 66.338966 78.017220
449 4 1  0.000000 78.694901 66.332581 79.542274
450 4 1  0.000000 77.227417 65.686615 79.510124
451 4 1  0.000000 78.095284 66.428970 80.737411
452 4 1  0.000000 77.232468 66.282692 81.960030
453 4 1  0.000000 76.761940 66.693291 83.356209
454 4 1  0.000000 75.302063 67.520569 82.916786
455 4 1  0.000000 75.134453 69.053871 83.333740
456 4 1  0.000000 74.170906 68.024666 83.643364
457 4 1  0.000000 72.907547 68.477791 84.498955
458 4 1  0.000000 71.263725 68.935738 84.390633
459 4 1  0.000000 71.407143 69.167122 82.703400
460 4 1  0.000000 71.699066 69.334206 81.312462
461 4 1  0.000000 71.536438 70.290215 80.438065
462 4 1  0.000000 70.434921 70.925491 79.709900
463 4 1  0.000000 69.017029 71.846016 79.373390
464 4 1  0.000000 67.878914 72.462784 80.053162
465 4 1  0.000000 66.458725 72.082687 80.722557
466 4 1  0.000000 66.117790 70.520035 81.506187
467 4 1  0.000000 65.989929 70.273064 82.919884
468 4 1  0.000000 66.723198 68.995552 83.449516
469 4 1  0.000000 66.710022 69.802452 84.965179
470 4 1  0.000000 67.222961 70.452171 86.423157
471 4 1  0.000000 68.167076 71.205650 87.124741
472 4 1  0.000000 68.089340 72.772827 87.680771
473 4 1  0.000000 67.772278 74.396255 87.601204
474 4 1  0.000000 67.311256 74.214310 89.018791
475 4 1  0.000000 67.398193 74.909584 90.604546
476 4 1  0.000000 67.298706 76.479874 91.045807
477 4 1  0.000000 67.037552 76.259628 92.685341
478 4 1  0.000000 65.730087 75.828163 91.965500
479 4 1  0.000000 64.180199 75.310974 91.981430
480 4 1  0.000000 62.731728 75.096046 92.112610
481 4 1  0.000000 61.774086 75.218559 90.918510
482 4 1  0.000000 62.160950 75.937935 89.554840
483 4 1  0.000000 61.500828 75.059959 88.496162
484 4 1  0.000000 61.730068 73.618752 88.156235
485 4 1  0.000000 61.162754 72.448647 88.769218
486 4 1  0.000000 60.381653 70.925018 88.776802
487 4 1  0.000000 61.633572 70.193558 89.291573
488 4 1  0.000000 62.819134 70.245056 88.311882
489 4 1  0.000000 64.294556 70.142113 88.239784
490 4 1  0.000000 64.220039 70.442169 89.439896
491 4 1  0.000000 65.673080 70.898796 89.896523
492 4 1  0.000000 67.043694 70.392479 90.535034
493 4 1  0.000000 67.000023 71.129951 91.819794
494 4 1  0.000000 66.425629 71.144783 93.143532
495 4 1  0.000000 67.810417 70.643211 92.904869
496 4 1  0.000000 66.800941 69.936485 93.885605
497 4 1  0.000000 67.280983 68.602646 94.445038
498 4 1  0.000000 67.797379 68.723671 96.026909
499 4 1  0.000000 66.782181 68.531418 97.186218
500 4 1  0.000000 67.031624 69.051422 98.479126
501 5 1  0.000000 130.875137 94.083153 79.331078
502 5 1  0.000000 131.427048 92.950394 80.207115
503 5 1  0.000000 130.914505 91.564903 79.553108
504 5 1  0.000000 131.775986 91.520935 80.677933
505 5 1  0.000000 130.945480 90.818726 81.818390
506 5 1  0.000000 130.164047 89.970581 82.811333
507 5 1  0.000000 129.311554 90.913689 83.845573
508 5 1  0.000000 127.935997 91.033501 82.869118
509 5 1  0.000000 127.552803 90.421272 84.313759
510 5 1  0.000000 126.451813 91.350021 84.799004
511 5 1  0.000000 125.712608 92.874298 84.589622
512 5 1  0.000000 124.725960 93.911896 83.901375
513 5 1  0.000000 123.477577 94.889519 83.631699
514 5 1  0.000000 122.931763 94.370186 82.152107
515 5 1  0.000000 121.692833 94.020416 83.090500
516 5 1  0.000000 120.262314 93.825882 82.645149
517 5 1  0.000000 118.985504 92.886848 82.321945
518 5 1  0.000000 117.735321 92.729584 83.290993
519 5 1  0.000000 116.427055 91.868134 83.307373
520 5 1  0.000000 115.045654 91.713631 83.438728
521 5 1  0.000000 114.438080 91.934357 84.741982
522 5 1  0.000000 113.316315 92.846657 85.553909
523 5 1  0.000000 112.323402 93.897301 84.897102
524 5 1  0.000000 111.203629 93.760727 85.761284
525 5 1  0.000000 110.205032 94.526917 86.784912
526 5 1  0.000000 108.889030 94.852997 86.642044
527 5 1  0.000000 107.694611 93.713455 87.346924
528 5 1  0.000000 106.618851 94.733574 87.791687
529 5 1  0.000000 105.402924 94.099716 86.912224
530 5 1  0.000000 103.986046 93.360382 87.479637
531 5 1  0.000000 102.820419 94.451622 87.367081
532 5 1  0.000000 102.267525 92.971909 87.365517
533 5 1  0.000000 100.874405 92.274673 87.287674
534 5 1  0.000000 99.872597 91.353401 86.726898
535 5 1  0.000000 98.242386 91.514488 86.390381
536 5 1  0.000000 98.233925 91.170319 84.934929
537 5 1  0.000000 97.044891 90.598579 84.222595
538 5 1  0.000000 96.314919 89.533943 83.435753
539 5 1  0.000000 94.909485 89.600533 82.493011
540 5 1  0.000000 94.925407 90.513016 81.252075
541 5 1  0.000000 94.296959 90.572456 79.803543
542 5 1  0.000000 92.907379 90.044731 79.749413
543 5 1  0.000000 92.192467 88.752892 78.856445
544 5 1  0.000000 91.452339 89.294800 77.769669
545 5 1  0.000000 90.927673 88.166618 78.715477
546 5 1  0.000000 90.018745 86.926247 79.010696
547 5 1  0.000000 88.588554 86.435753 79.377655
548 5 1  0.000000 87.850784 86.806931 80.778694
549 5 1  0.000000 87.416550 87.535027 81.845749
550 5 1  0.000000 86.222107 88.414444 82.554985
551 5 1  0.000000 85.912872 88.318100 84.036232
552 5 1  0.000000 84.495712 88.744286 83.537125
553 5 1  0.000000 83.463776 88.563469 84.679680
554 5 1  0.000000 81.891716 88.480179 84.637451
555 5 1  0.000000 81.641357 88.019791 82.983749
556 5 1  0.000000 81.646751 88.567406 81.349686
557 5 1  0.000000 81.545586 89.232330 80.048431
558 5 1  0.000000 80.212456 88.896667 80.874229
559 5 1  0.000000 79.047386 89.657303 80.283455
560 5 1  0.000000 78.706833 91.069992 81.127106
561 5 1  0.000000 77.301369 91.170013 80.947777
562 5 1  0.000000 76.142578 90.518585 81.536736
563 5 1  0.000000 75.506935 89.948433 80.108032
564 5 1  0.000000 75.519600 89.438004 81.568375
565 5 1  0.000000 74.220688 88.505310 82.170609
566 5 1  0.000000 73.524071 87.489235 81.080330
567 5 1  0.000000 72.812241 86.124359 81.329529
568 5 1  0.000000 72.998405 84.400192 81.289520
569 5 1  0.000000 73.052742 82.910881 80.989868
570 5 1  0.000000 72.019058 82.669754 79.799065
571 5 1  0.000000 72.026047 81.604507 80.865273
572 5 1  0.000000 70.520004 80.866898 80.656593
573 5 1  0.000000 70.628723 80.352921 79.168175
574 5 1  0.000000 70.264488 79.042595 79.042717
575 5 1  0.000000 69.145706 77.960770 79.016891
576 5 1  0.000000 68.237961 77.227058 77.921768
577 5 1  0.000000 67.266258 75.994720 78.273323
578 5 1  0.000000 65.758224 75.786171 77.925652
579 5 1  0.000000 65.101135 76.087769 79.219414
580 5 1  0.000000 65.269463 76.400253 80.621895
581 5 1  0.000000 65.192207 77.125092 82.161705
582 5 1  0.000000 65.694916 78.198044 81.296135
583 5 1  0.000000 65.874588 79.743057 80.971176
584 5 1  0.000000 65.133064 80.493370 79.878014
585 5 1  0.000000 63.676628 80.080254 79.714012
586 5 1  0.000000 64.581139 80.961006 78.843605
587 5 1  0.000000 64.164482 81.082771 77.401917
588 5 1  0.000000 64.219009 80.335030 75.968323
589 5 1  0.000000 63.665516 80.073570 74.456284
590 5 1  0.000000 62.614326 79.139610 75.015678
591 5 1  0.000000 61.549786 78.707764 76.278465
592 5 1  0.000000 60.198616 79.219902 76.878174
593 5 1  0.000000 59.542503 80.286011 77.745430
594 5 1  0.000000 59.472038 81.840424 77.402405
595 5 1  0.000000 60.649891 82.860100 76.992279
596 5 1  0.000000 60.815205 84.388336 77.192848
597 5 1  0.000000 59.959831 85.623444 77.876640
598 5 1  0.000000 60.204865 86.959305 78.226456
599 5 1  0.000000 59.226799 88.220123 78.882935
600 5 1  0.000000 60.688030 87.770363 79.151588
601 6 1  0.000000 88.971214 103.966438 79.920029
602 6 1  0.000000 89.142540 102.481682 79.711617
603 6 1  0.000000 89.758713 101.042809 80.070511
604 6 1  0.000000 88.686829 100.434669 79.194511
605 6 1  0.000000 88.353943 99.469124 78.102348
606 6 1  0.000000 89.438240 98.504433 78.216949
607 6 1  0.000000 89.042809 97.288269 77.721001
608 6 1  0.000000 87.664291 96.719742 78.147751
609 6 1  0.000000 86.744400 95.869942 79.333939
610 6 1  0.000000 85.857193 94.801956 79.056099
611 6 1  0.000000 84.601501 95.838730 78.711716
612 6 1  0.000000 83.569977 96.753181 79.354782
613 6 1  0.000000 82.346603 95.607361 79.378105
614 6 1  0.000000 81.007095 94.475182 79.215378
615 6 1  0.000000 79.735657 94.977402 78.134621
616 6 1  0.000000 80.042068 96.175789 77.297264