Created with TaichiMD

1000 atoms
990 bonds
  0 angles
  0 dihedrals
  0 impropers

1 atom types
1 bond types
0 angle types
0 dihedral types
0 improper types

-80.00000  80.00000 xlo xhi
-80.00000  80.00000 ylo yhi
-80.00000  80.00000 zlo zhi

Masses

1  1.0000

Atoms

  1 0 1  0.000000 29.597939 19.882252 82.903252
  2 0 1  0.000000 30.925673 19.975613 83.561806
  3 0 1  0.000000 31.214270 18.500807 83.707413
  4 0 1  0.000000 32.840542 18.530603 83.370514
  5 0 1  0.000000 32.367790 17.383686 82.418541
  6 0 1  0.000000 33.550407 17.217659 81.589554
  7 0 1  0.000000 33.420631 17.771606 80.243866
  8 0 1  0.000000 34.858009 17.596855 79.660278
  9 0 1  0.000000 35.780376 16.348478 79.448853
 10 0 1  0.000000 36.966557 15.426274 79.290482
 11 0 1  0.000000 36.512482 16.220436 78.072891
 12 0 1  0.000000 37.936943 15.489991 78.341957
 13 0 1  0.000000 39.305458 16.209595 77.754593
 14 0 1  0.000000 39.580307 16.985512 76.469795
 15 0 1  0.000000 40.878433 17.807938 76.887787
 16 0 1  0.000000 42.385139 17.592175 76.572601
 17 0 1  0.000000 43.860817 17.564341 76.761658
 18 0 1  0.000000 44.975239 16.891012 77.682442
 19 0 1  0.000000 45.550434 18.024389 78.467010
 20 0 1  0.000000 46.881718 17.346792 78.854187
 21 0 1  0.000000 47.657360 16.977253 77.694321
 22 0 1  0.000000 48.761703 18.013197 77.812897
 23 0 1  0.000000 50.176880 17.747149 77.606606
 24 0 1  0.000000 50.920712 17.199656 78.903015
 25 0 1  0.000000 52.299541 17.074434 79.471642
 26 0 1  0.000000 52.736919 16.943720 77.958260
 27 0 1  0.000000 54.040024 16.204664 78.298340
 28 0 1  0.000000 55.169872 17.429258 78.147713
 29 0 1  0.000000 56.443043 18.070127 78.126884
 30 0 1  0.000000 56.707611 16.597233 78.607712
 31 0 1  0.000000 58.071629 16.478596 78.552750
 32 0 1  0.000000 59.235592 15.574110 79.275200
 33 0 1  0.000000 60.632355 16.020384 78.455475
 34 0 1  0.000000 61.857552 16.527901 77.852058
 35 0 1  0.000000 62.759026 16.810144 76.672501
 36 0 1  0.000000 64.416557 16.674103 76.303406
 37 0 1  0.000000 65.238686 15.957950 77.531090
 38 0 1  0.000000 65.952240 15.027988 78.511421
 39 0 1  0.000000 66.793251 16.137802 78.084892
 40 0 1  0.000000 67.987900 16.845490 78.325432
 41 0 1  0.000000 69.033325 17.559868 78.984329
 42 0 1  0.000000 70.109749 17.563593 78.167931
 43 0 1  0.000000 71.581955 17.553408 78.095161
 44 0 1  0.000000 72.615700 16.824179 77.127800
 45 0 1  0.000000 73.447105 15.842162 76.434029
 46 0 1  0.000000 74.817909 15.755971 77.236137
 47 0 1  0.000000 76.188286 16.338387 77.051147
 48 0 1  0.000000 77.303871 17.078674 76.162338
 49 0 1  0.000000 78.735519 17.872059 76.357391
 50 0 1  0.000000 80.227554 17.963451 76.086243
 51 0 1  0.000000 81.695000 17.593054 75.840775
 52 0 1  0.000000 82.520348 17.369457 76.993599
 53 0 1  0.000000 83.828224 16.575462 77.063087
 54 0 1  0.000000 85.019310 15.853158 76.678879
 55 0 1  0.000000 86.561073 15.970494 76.162247
 56 0 1  0.000000 87.802734 16.083893 75.301956
 57 0 1  0.000000 88.612282 14.751021 75.470482
 58 0 1  0.000000 89.414818 15.867970 76.174225
 59 0 1  0.000000 90.901535 16.048353 76.111771
 60 0 1  0.000000 92.430939 16.020758 75.885117
 61 0 1  0.000000 93.300926 14.898012 76.440186
 62 0 1  0.000000 94.799088 15.299490 75.941505
 63 0 1  0.000000 96.127319 15.635170 76.662544
 64 0 1  0.000000 96.950676 15.949780 77.939362
 65 0 1  0.000000 98.570297 16.090212 77.916359
 66 0 1  0.000000 99.944107 16.655880 78.315300
 67 0 1  0.000000 101.364899 17.344378 77.824753
 68 0 1  0.000000 102.365318 16.451433 78.468216
 69 0 1  0.000000 103.301781 17.138954 77.414642
 70 0 1  0.000000 104.425652 16.868179 76.443451
 71 0 1  0.000000 105.297142 17.140762 77.699173
 72 0 1  0.000000 106.685501 17.375546 77.511971
 73 0 1  0.000000 108.237465 17.112324 77.526184
 74 0 1  0.000000 109.373161 16.239542 76.713631
 75 0 1  0.000000 110.843536 16.334461 75.939796
 76 0 1  0.000000 112.258125 15.562002 75.843208
 77 0 1  0.000000 113.284988 16.036449 74.799026
 78 0 1  0.000000 114.465141 16.203707 75.727066
 79 0 1  0.000000 114.831718 17.008301 76.889877
 80 0 1  0.000000 116.295532 17.096331 77.341385
 81 0 1  0.000000 117.232605 17.615395 78.314430
 82 0 1  0.000000 118.502403 17.783579 77.286110
 83 0 1  0.000000 118.641159 16.857416 78.599586
 84 0 1  0.000000 120.193367 16.518507 78.472229
 85 0 1  0.000000 120.101898 14.981426 78.670021
 86 0 1  0.000000 121.382393 15.072855 79.559914
 87 0 1  0.000000 123.014297 15.069546 79.713623
 88 0 1  0.000000 122.628922 15.069148 81.379944
 89 0 1  0.000000 124.013283 15.327077 80.494324
 90 0 1  0.000000 125.193245 16.509790 80.221611
 91 0 1  0.000000 126.328934 16.216187 81.351692
 92 0 1  0.000000 127.222229 17.336079 81.772018
 93 0 1  0.000000 128.075943 17.690874 80.503693
 94 0 1  0.000000 129.058273 16.723856 80.550194
 95 0 1  0.000000 130.300598 16.553593 81.504410
 96 0 1  0.000000 131.587463 15.795378 82.252968
 97 0 1  0.000000 132.150528 15.907024 83.593109
 98 0 1  0.000000 131.423111 16.225449 84.730476
 99 0 1  0.000000 129.936432 15.974507 85.194870
100 0 1  0.000000 128.945984 15.910312 86.470795
101 1 1  0.000000 27.870039 23.131952 81.285683
102 1 1  0.000000 28.441263 22.849648 79.742973
103 1 1  0.000000 29.841150 23.020037 79.191826
104 1 1  0.000000 31.056086 23.740812 78.713867
105 1 1  0.000000 31.556692 24.611988 79.922546
106 1 1  0.000000 31.688223 25.892973 80.817665
107 1 1  0.000000 31.227442 27.035559 81.955330
108 1 1  0.000000 32.674320 27.799109 81.826317
109 1 1  0.000000 33.857529 28.156746 81.095802
110 1 1  0.000000 35.349972 28.392529 81.137238
111 1 1  0.000000 35.734364 29.860180 81.038818
112 1 1  0.000000 37.072857 29.271519 80.553741
113 1 1  0.000000 37.590347 30.638384 80.315010
114 1 1  0.000000 38.887329 30.374319 79.394348
115 1 1  0.000000 39.962536 29.779978 78.716026
116 1 1  0.000000 41.400234 30.397728 78.624016
117 1 1  0.000000 42.571579 29.568968 78.131035
118 1 1  0.000000 43.250839 30.801601 78.255516
119 1 1  0.000000 44.653252 31.019674 78.492516
120 1 1  0.000000 45.325611 32.100800 79.454399
121 1 1  0.000000 45.881409 33.170223 78.377754
122 1 1  0.000000 47.334152 33.964363 78.394180
123 1 1  0.000000 48.755634 34.359142 78.396469
124 1 1  0.000000 49.533875 35.742996 78.064056
125 1 1  0.000000 49.935555 35.405632 79.449982
126 1 1  0.000000 51.389671 34.933064 78.893639
127 1 1  0.000000 52.422222 35.439888 80.023781
128 1 1  0.000000 52.739769 36.496506 81.227394
129 1 1  0.000000 54.075710 36.009243 80.936806
130 1 1  0.000000 55.524223 36.602589 81.200089
131 1 1  0.000000 56.674347 36.648769 82.252327
132 1 1  0.000000 57.807049 37.661999 81.583900
133 1 1  0.000000 59.074753 36.903439 80.846458
134 1 1  0.000000 59.914093 36.050465 81.974258
135 1 1  0.000000 61.411854 36.203869 82.620361
136 1 1  0.000000 62.919647 35.565907 82.894791
137 1 1  0.000000 64.158340 36.184811 82.581924
138 1 1  0.000000 65.590530 36.751568 82.108841
139 1 1  0.000000 66.947487 36.065781 82.710800
140 1 1  0.000000 68.274559 35.454277 82.545197
141 1 1  0.000000 69.458740 34.652473 81.857803
142 1 1  0.000000 70.829041 35.100887 82.251137
143 1 1  0.000000 72.115295 35.592907 81.525597
144 1 1  0.000000 73.609703 35.656361 81.421234
145 1 1  0.000000 75.059746 35.294460 81.520378
146 1 1  0.000000 76.534760 35.148121 81.883316
147 1 1  0.000000 77.802826 34.441742 82.248497
148 1 1  0.000000 79.267967 34.051769 81.917099
149 1 1  0.000000 80.132408 35.064629 82.792297
150 1 1  0.000000 80.927414 36.309357 83.139023
151 1 1  0.000000 81.869476 37.567669 83.041191
152 1 1  0.000000 83.067482 38.332020 82.387878
153 1 1  0.000000 84.161690 37.466606 82.443375
154 1 1  0.000000 85.667908 37.432907 82.443779
155 1 1  0.000000 86.759575 36.793259 81.454269
156 1 1  0.000000 88.084412 37.120640 81.925331
157 1 1  0.000000 89.680946 36.799625 82.032944
158 1 1  0.000000 91.074944 37.244415 82.507881
159 1 1  0.000000 92.213272 36.653107 83.577278
160 1 1  0.000000 92.953339 35.322937 83.316612
161 1 1  0.000000 93.883469 36.016972 84.350456
162 1 1  0.000000 95.321709 36.339527 83.759689
163 1 1  0.000000 96.908562 36.013542 83.877663
164 1 1  0.000000 97.698021 35.798546 82.576820
165 1 1  0.000000 98.901367 35.541168 81.491440
166 1 1  0.000000 99.957008 34.756935 82.383316
167 1 1  0.000000 101.223625 34.386177 83.176308
168 1 1  0.000000 102.635269 34.110039 82.641106
169 1 1  0.000000 104.009254 34.081665 81.886902
170 1 1  0.000000 104.593102 35.502628 81.406853
171 1 1  0.000000 106.106239 35.889210 81.281090
172 1 1  0.000000 107.167351 35.382267 82.029999
173 1 1  0.000000 108.245903 35.684067 80.767311
174 1 1  0.000000 109.693283 35.667381 80.169479
175 1 1  0.000000 110.810699 34.579926 80.668488
176 1 1  0.000000 112.163101 35.129772 80.636757
177 1 1  0.000000 112.958336 35.550373 81.957886
178 1 1  0.000000 114.124359 35.510109 80.945312
179 1 1  0.000000 115.663673 35.059422 80.862656
180 1 1  0.000000 116.026566 35.815899 82.097923
181 1 1  0.000000 116.787895 35.266331 80.888161
182 1 1  0.000000 118.292992 35.345592 80.445465
183 1 1  0.000000 119.234055 36.556049 80.622040
184 1 1  0.000000 120.687828 36.390640 80.650925
185 1 1  0.000000 120.236923 36.913406 79.252243
186 1 1  0.000000 121.673912 36.591324 78.660950
187 1 1  0.000000 122.970978 37.030495 79.259499
188 1 1  0.000000 124.330513 37.158054 79.992897
189 1 1  0.000000 124.684601 37.972908 78.604095
190 1 1  0.000000 125.803200 37.049877 78.820419
191 1 1  0.000000 126.921906 36.890751 79.810036
192 1 1  0.000000 128.223129 36.309387 79.565338
193 1 1  0.000000 128.500595 35.662857 78.274345
194 1 1  0.000000 129.590698 36.151554 79.359612
195 1 1  0.000000 130.939026 36.023331 79.724442
196 1 1  0.000000 132.161972 35.428162 80.514023
197 1 1  0.000000 132.131531 34.536850 79.249977
198 1 1  0.000000 133.682053 34.671501 79.079941
199 1 1  0.000000 134.798706 34.379688 78.094688
200 1 1  0.000000 134.361832 33.565639 76.915329
201 2 1  0.000000 30.306948 41.422024 82.022659
202 2 1  0.000000 29.247883 41.389870 81.007378
203 2 1  0.000000 28.353775 41.374355 79.793633
204 2 1  0.000000 28.642414 41.645626 78.359291
205 2 1  0.000000 28.106659 42.979862 78.728157
206 2 1  0.000000 27.743740 43.182251 77.243141
207 2 1  0.000000 28.752220 43.676308 75.987556
208 2 1  0.000000 30.217520 43.227749 75.430359
209 2 1  0.000000 31.439121 42.365788 75.149246
210 2 1  0.000000 32.803211 42.120037 75.234657
211 2 1  0.000000 33.540936 43.428116 75.737595
212 2 1  0.000000 33.903183 44.918015 76.259872
213 2 1  0.000000 34.571209 45.655853 77.582077
214 2 1  0.000000 36.116016 45.214352 77.705605
215 2 1  0.000000 36.903252 46.041653 76.623657
216 2 1  0.000000 37.866665 45.738754 75.311661
217 2 1  0.000000 38.767998 45.281609 74.026489
218 2 1  0.000000 39.652142 46.280685 74.468407
219 2 1  0.000000 40.428665 45.134853 74.812622
220 2 1  0.000000 41.798553 45.753639 74.432022
221 2 1  0.000000 43.024319 45.289249 75.196976
222 2 1  0.000000 44.614532 45.368149 75.724709
223 2 1  0.000000 45.976345 45.605061 76.424454
224 2 1  0.000000 46.721764 45.784283 74.985451
225 2 1  0.000000 48.101673 46.394230 74.718590
226 2 1  0.000000 49.009251 46.440975 76.086739
227 2 1  0.000000 49.959805 45.618492 76.998024
228 2 1  0.000000 51.445698 46.061310 77.021133
229 2 1  0.000000 52.940994 45.599667 77.055412
230 2 1  0.000000 54.379745 45.884365 76.613762
231 2 1  0.000000 55.556454 45.724709 75.590828
232 2 1  0.000000 56.706886 46.793400 75.935448
233 2 1  0.000000 58.068062 46.381104 75.960152
234 2 1  0.000000 59.184799 45.787655 76.825226
235 2 1  0.000000 60.531841 45.233791 77.437462
236 2 1  0.000000 61.814335 44.523457 77.250420
237 2 1  0.000000 63.341190 44.286530 76.916306
238 2 1  0.000000 63.804054 44.842079 75.411507
239 2 1  0.000000 65.384132 45.217056 75.476158
240 2 1  0.000000 67.100403 45.323875 75.433472
241 2 1  0.000000 68.547882 45.858150 75.539574
242 2 1  0.000000 69.399086 46.891361 75.188126
243 2 1  0.000000 70.824127 47.309452 74.756897
244 2 1  0.000000 72.098938 48.146488 75.067207
245 2 1  0.000000 73.370193 47.975838 76.026505
246 2 1  0.000000 74.755623 47.549965 76.243523
247 2 1  0.000000 76.205864 48.118088 76.221764
248 2 1  0.000000 77.710632 48.244293 76.802307
249 2 1  0.000000 79.239822 48.231117 77.314636
250 2 1  0.000000 80.265915 48.489113 76.294937
251 2 1  0.000000 81.631119 48.385029 76.794922
252 2 1  0.000000 81.468384 48.273357 75.245239
253 2 1  0.000000 82.568794 48.753059 74.431999
254 2 1  0.000000 84.040878 48.908916 75.196129
255 2 1  0.000000 85.403557 48.243061 75.226189
256 2 1  0.000000 86.287766 48.834610 76.253647
257 2 1  0.000000 87.736076 48.970119 76.694702
258 2 1  0.000000 89.177414 48.885181 77.224792
259 2 1  0.000000 90.514107 49.692520 77.492500
260 2 1  0.000000 91.907730 49.114471 77.434448
261 2 1  0.000000 93.334877 49.259277 77.050758
262 2 1  0.000000 93.078934 49.405209 78.464111
263 2 1  0.000000 94.360817 49.545551 79.304619
264 2 1  0.000000 95.491615 49.490242 78.404297
265 2 1  0.000000 96.915009 49.724392 77.735321
266 2 1  0.000000 97.088654 48.944019 78.982788
267 2 1  0.000000 98.285660 49.464737 79.580238
268 2 1  0.000000 99.658661 49.495251 79.097931
269 2 1  0.000000 100.203743 48.965195 80.542885
270 2 1  0.000000 101.260551 49.566254 79.808693
271 2 1  0.000000 102.726952 49.349716 79.440315
272 2 1  0.000000 103.611626 49.523346 78.111526
273 2 1  0.000000 104.823044 50.472065 78.447784
274 2 1  0.000000 105.536346 49.315998 77.827965
275 2 1  0.000000 106.945808 48.763729 78.239113
276 2 1  0.000000 108.354797 48.920990 78.370041
277 2 1  0.000000 109.633568 49.205723 79.000221
278 2 1  0.000000 111.024231 49.654022 79.339432
279 2 1  0.000000 112.357262 50.352795 79.350319
280 2 1  0.000000 113.199394 49.671349 80.423592
281 2 1  0.000000 114.136620 50.565781 81.296700
282 2 1  0.000000 115.432816 49.934792 81.518539
283 2 1  0.000000 116.930000 50.152561 81.478477
284 2 1  0.000000 118.328346 49.791435 81.579987
285 2 1  0.000000 119.574669 49.028961 81.933937
286 2 1  0.000000 120.843231 49.751801 82.654488
287 2 1  0.000000 121.957626 50.621311 82.324409
288 2 1  0.000000 122.958359 50.349072 83.296928
289 2 1  0.000000 124.370255 50.886261 83.043411
290 2 1  0.000000 124.696312 49.465206 83.385651
291 2 1  0.000000 126.026459 49.745995 83.450531
292 2 1  0.000000 127.458069 49.827785 82.819809
293 2 1  0.000000 128.899979 49.835209 83.302124
294 2 1  0.000000 129.620941 48.968002 82.030846
295 2 1  0.000000 130.578476 50.027092 81.738731
296 2 1  0.000000 132.002197 49.899929 81.546501
297 2 1  0.000000 133.343277 50.404133 80.916786
298 2 1  0.000000 134.743576 49.995243 80.044357
299 2 1  0.000000 135.595718 48.784851 80.286629
300 2 1  0.000000 136.973953 48.825771 81.076385
301 3 1  0.000000 23.333834 58.929882 78.787613
302 3 1  0.000000 23.820152 59.117683 80.295830
303 3 1  0.000000 25.054609 59.932632 79.859848
304 3 1  0.000000 26.527514 60.033482 79.972214
305 3 1  0.000000 27.127817 61.267681 81.007477
306 3 1  0.000000 28.449394 61.291481 81.716057
307 3 1  0.000000 29.456282 61.319950 80.494606
308 3 1  0.000000 30.330420 62.339199 81.330772
309 3 1  0.000000 31.705469 61.850803 81.526978
310 3 1  0.000000 32.852928 60.823475 81.529861
311 3 1  0.000000 33.903221 60.547150 80.433113
312 3 1  0.000000 34.953400 61.682407 80.273453
313 3 1  0.000000 35.653934 61.955929 81.708588
314 3 1  0.000000 35.813957 61.269039 83.136482
315 3 1  0.000000 37.118000 61.930073 83.339943
316 3 1  0.000000 38.335625 61.273430 84.124084
317 3 1  0.000000 39.516205 61.732227 83.155983
318 3 1  0.000000 40.546497 62.226154 84.115250
319 3 1  0.000000 41.479019 62.453175 82.802742
320 3 1  0.000000 42.661949 61.750694 83.396233
321 3 1  0.000000 43.856888 60.782085 83.174950
322 3 1  0.000000 45.271519 61.260330 83.791496
323 3 1  0.000000 46.004307 62.335323 83.152496
324 3 1  0.000000 47.300358 62.627319 83.247581
325 3 1  0.000000 47.693501 62.148815 81.895790
326 3 1  0.000000 49.168427 61.620697 82.116219
327 3 1  0.000000 50.164379 60.455219 82.651810
328 3 1  0.000000 51.741978 60.850445 82.665901
329 3 1  0.000000 52.970417 59.863331 83.092506
330 3 1  0.000000 54.039043 58.685860 82.860657
331 3 1  0.000000 55.230110 58.782566 81.938202
332 3 1  0.000000 56.602451 58.354050 81.298904
333 3 1  0.000000 57.837906 59.337173 80.854591
334 3 1  0.000000 59.513153 59.234379 81.038818
335 3 1  0.000000 60.913616 58.734615 81.215790
336 3 1  0.000000 62.472683 59.495022 81.098862
337 3 1  0.000000 63.470234 59.895241 82.095688
338 3 1  0.000000 65.016098 59.915569 82.326859
339 3 1  0.000000 64.887703 58.606930 81.385521
340 3 1  0.000000 66.168114 59.275002 81.483009
341 3 1  0.000000 67.258354 58.296593 80.696793
342 3 1  0.000000 68.642662 59.054638 80.526520
343 3 1  0.000000 69.870415 58.677391 81.374092
344 3 1  0.000000 71.387688 59.279922 81.147339
345 3 1  0.000000 72.008034 57.824013 81.235641
346 3 1  0.000000 73.292603 58.357178 81.793358
347 3 1  0.000000 74.677902 58.508949 82.469620
348 3 1  0.000000 75.685547 59.433903 81.620720
349 3 1  0.000000 76.931824 58.774914 82.216759
350 3 1  0.000000 78.244423 59.405449 82.520226
351 3 1  0.000000 79.153038 58.509445 81.551743
352 3 1  0.000000 80.336609 57.745121 80.816917
353 3 1  0.000000 81.493675 58.610210 80.600891
354 3 1  0.000000 82.784241 59.274086 80.200058
355 3 1  0.000000 83.882492 58.198162 79.818382
356 3 1  0.000000 85.115746 57.656094 80.283669
357 3 1  0.000000 86.201294 57.086723 81.246284
358 3 1  0.000000 87.645958 57.263081 80.967392
359 3 1  0.000000 89.030853 56.834282 80.365097
360 3 1  0.000000 90.787247 56.492210 80.433670
361 3 1  0.000000 91.776817 56.654480 79.198067
362 3 1  0.000000 92.747719 57.519375 78.428291
363 3 1  0.000000 93.631393 58.013802 79.541855
364 3 1  0.000000 94.870529 58.553749 80.276573
365 3 1  0.000000 96.033791 59.474304 80.436821
366 3 1  0.000000 97.400063 58.756710 80.080399
367 3 1  0.000000 98.768959 58.282742 79.512978
368 3 1  0.000000 99.215958 56.860584 79.138031
369 3 1  0.000000 100.594978 56.617874 79.716064
370 3 1  0.000000 102.140068 56.828926 80.266365
371 3 1  0.000000 102.645546 57.737411 81.355408
372 3 1  0.000000 104.252022 57.979084 80.938988
373 3 1  0.000000 104.894653 56.570824 80.834732
374 3 1  0.000000 106.224541 57.106850 81.553757
375 3 1  0.000000 107.370186 57.460911 82.334969
376 3 1  0.000000 108.693764 57.583900 81.588928
377 3 1  0.000000 110.260658 57.755070 81.228859
378 3 1  0.000000 111.247147 56.808372 82.176262
379 3 1  0.000000 112.532974 57.120262 83.062172
380 3 1  0.000000 113.317291 57.653259 81.900391
381 3 1  0.000000 114.706528 57.699635 81.527115
382 3 1  0.000000 114.670731 59.010746 82.308762
383 3 1  0.000000 116.334236 58.781055 82.266388
384 3 1  0.000000 117.580009 59.845150 81.885292
385 3 1  0.000000 119.002922 59.899380 80.984634
386 3 1  0.000000 120.052025 60.485416 82.116806
387 3 1  0.000000 121.561798 60.839207 82.246635
388 3 1  0.000000 122.329414 62.331394 82.115402
389 3 1  0.000000 123.953590 62.362827 81.832527
390 3 1  0.000000 124.903351 63.617275 81.332436
391 3 1  0.000000 126.136124 63.770313 82.239693
392 3 1  0.000000 127.570969 63.598072 81.706184
393 3 1  0.000000 129.160446 64.112381 81.790710
394 3 1  0.000000 129.236069 64.206505 80.404488
395 3 1  0.000000 129.445786 65.523430 79.742325
396 3 1  0.000000 129.826523 66.912971 79.248535
397 3 1  0.000000 131.214890 66.912361 78.678909
398 3 1  0.000000 132.469696 67.839569 78.453537
399 3 1  0.000000 131.288254 68.498367 77.646629
400 3 1  0.000000 130.710648 68.679672 76.159470
401 4 1  0.000000 25.117701 66.549721 80.414749
402 4 1  0.000000 24.846933 67.358620 79.254181
403 4 1  0.000000 24.399302 68.613754 80.053627
404 4 1  0.000000 25.984310 69.071884 80.176956
405 4 1  0.000000 27.172827 69.917564 79.729286
406 4 1  0.000000 28.245785 70.410858 80.860565
407 4 1  0.000000 29.690205 70.952721 80.740860
408 4 1  0.000000 30.997410 71.833000 80.605965
409 4 1  0.000000 32.438072 71.243492 80.551109
410 4 1  0.000000 33.467464 69.974510 80.389122
411 4 1  0.000000 34.628605 69.508911 79.480225
412 4 1  0.000000 35.948780 69.964577 79.668686
413 4 1  0.000000 36.494503 70.901794 80.658478
414 4 1  0.000000 37.947620 70.930504 81.438889
415 4 1  0.000000 39.425014 70.977264 81.715942
416 4 1  0.000000 40.733784 70.385361 81.259109
417 4 1  0.000000 41.238441 70.158501 79.860489
418 4 1  0.000000 42.424763 69.281281 80.205406
419 4 1  0.000000 43.006763 68.115562 81.197426
420 4 1  0.000000 44.322556 68.318581 80.472290
421 4 1  0.000000 45.910667 68.842415 80.616035
422 4 1  0.000000 46.496586 69.540306 79.491653
423 4 1  0.000000 47.955406 70.164909 79.152740
424 4 1  0.000000 49.446945 70.596466 78.864868
425 4 1  0.000000 50.475632 71.749382 79.156441
426 4 1  0.000000 51.975498 72.336143 79.447395
427 4 1  0.000000 52.903008 73.516098 79.894341
428 4 1  0.000000 53.752728 72.286613 80.398949
429 4 1  0.000000 55.260773 71.671333 80.605202
430 4 1  0.000000 55.763119 72.780678 81.733391
431 4 1  0.000000 57.261810 73.307877 81.763229
432 4 1  0.000000 58.369408 73.574745 80.720299
433 4 1  0.000000 59.867500 73.546074 81.038277
434 4 1  0.000000 60.562691 72.371140 81.345871
435 4 1  0.000000 61.663895 71.202614 81.067001
436 4 1  0.000000 63.114208 71.539940 80.654770
437 4 1  0.000000 64.524147 72.033890 80.699265
438 4 1  0.000000 65.810066 72.405190 80.688721
439 4 1  0.000000 67.289207 72.996307 80.017044
440 4 1  0.000000 68.003395 71.916122 81.038597
441 4 1  0.000000 69.004913 71.027245 80.274071
442 4 1  0.000000 70.057747 70.019150 79.568832
443 4 1  0.000000 70.912872 70.036720 80.869919
444 4 1  0.000000 72.231323 69.803581 80.146378
445 4 1  0.000000 73.857552 69.526779 80.257133
446 4 1  0.000000 75.328598 70.044495 79.947456
447 4 1  0.000000 76.739647 70.469574 79.807953
448 4 1  0.000000 77.957672 70.689148 78.847496
449 4 1  0.000000 78.876457 71.401245 79.829178
450 4 1  0.000000 79.924774 72.193771 79.006683
451 4 1  0.000000 81.226135 72.047691 78.034142
452 4 1  0.000000 82.521996 72.250877 78.883461
453 4 1  0.000000 83.935760 71.753708 79.136826
454 4 1  0.000000 85.179207 71.698303 79.937958
455 4 1  0.000000 86.078163 72.249298 81.002419
456 4 1  0.000000 87.580086 72.270226 81.420990
457 4 1  0.000000 89.118538 72.060791 81.167160
458 4 1  0.000000 90.176483 73.169754 81.393524
459 4 1  0.000000 91.120995 73.739059 82.576843
460 4 1  0.000000 91.095451 73.383995 81.162399
461 4 1  0.000000 92.314606 73.738853 80.425529
462 4 1  0.000000 93.916458 73.624458 80.549255
463 4 1  0.000000 95.582947 73.831352 80.405746
464 4 1  0.000000 97.080223 73.733139 80.250839
465 4 1  0.000000 97.551353 75.015327 81.362213
466 4 1  0.000000 98.557053 73.925621 81.935135
467 4 1  0.000000 99.971863 73.688141 82.093666
468 4 1  0.000000 101.341499 74.158569 82.805725
469 4 1  0.000000 102.626884 74.821152 83.000374
470 4 1  0.000000 102.397903 73.801109 81.944466
471 4 1  0.000000 103.752182 72.944633 81.985680
472 4 1  0.000000 105.154350 72.496666 82.150604
473 4 1  0.000000 106.565979 72.619225 81.492950
474 4 1  0.000000 108.021454 72.814125 80.776711
475 4 1  0.000000 109.183075 72.569748 81.730202
476 4 1  0.000000 109.625336 71.162064 81.227715
477 4 1  0.000000 110.993484 71.997566 81.422424
478 4 1  0.000000 112.572639 71.632133 81.433739
479 4 1  0.000000 113.224907 70.402740 82.200424
480 4 1  0.000000 114.454407 70.253189 81.372002
481 4 1  0.000000 115.998573 70.002342 80.915092
482 4 1  0.000000 117.550476 70.528313 81.132774
483 4 1  0.000000 118.239075 71.949509 81.184593
484 4 1  0.000000 119.499527 72.678123 80.967072
485 4 1  0.000000 120.558922 73.639244 80.777878
486 4 1  0.000000 121.271751 73.813423 82.069588
487 4 1  0.000000 122.886162 73.686859 82.484619
488 4 1  0.000000 123.517609 74.075897 84.011612
489 4 1  0.000000 124.959610 73.414375 84.020119
490 4 1  0.000000 126.463318 73.531517 83.739609
491 4 1  0.000000 126.930779 73.524544 82.380821
492 4 1  0.000000 127.842850 72.365768 82.601921
493 4 1  0.000000 128.986954 71.862923 83.340691
494 4 1  0.000000 130.572250 71.792236 83.512749
495 4 1  0.000000 130.460083 72.344940 85.004662
496 4 1  0.000000 131.628540 73.234406 84.701080
497 4 1  0.000000 132.227219 73.335793 86.053268
498 4 1  0.000000 131.825760 74.877983 85.551231
499 4 1  0.000000 132.823441 76.131317 85.403793
500 4 1  0.000000 132.741852 77.561890 86.202248
501 5 1  0.000000 25.207438 90.903778 86.486740
502 5 1  0.000000 26.465767 91.064674 85.502975
503 5 1  0.000000 26.099579 89.816032 86.211342
504 5 1  0.000000 27.268909 88.774918 86.045807
505 5 1  0.000000 28.698097 89.307137 85.861946
506 5 1  0.000000 29.985458 89.828094 86.638969
507 5 1  0.000000 31.099415 88.682945 86.238739
508 5 1  0.000000 32.521702 88.774818 86.959694
509 5 1  0.000000 33.153927 88.905594 85.506561
510 5 1  0.000000 34.555893 89.090034 84.742676
511 5 1  0.000000 34.701607 89.672661 83.328239
512 5 1  0.000000 35.933422 88.892548 82.809967
513 5 1  0.000000 37.418938 89.358208 83.655510
514 5 1  0.000000 38.201530 87.903580 83.782852
515 5 1  0.000000 38.855709 88.381126 82.602104
516 5 1  0.000000 40.400131 88.441475 82.446190
517 5 1  0.000000 41.598305 87.760483 82.894714
518 5 1  0.000000 43.122261 88.213966 83.345863
519 5 1  0.000000 43.412899 88.835579 82.092308
520 5 1  0.000000 44.101105 87.778931 81.012939
521 5 1  0.000000 45.491203 87.381622 81.419922
522 5 1  0.000000 46.101761 86.478607 82.592781
523 5 1  0.000000 47.403671 85.634521 83.248932
524 5 1  0.000000 48.790867 85.868744 82.752075
525 5 1  0.000000 49.293049 87.170242 82.341919
526 5 1  0.000000 50.830647 86.850899 82.056114
527 5 1  0.000000 52.294613 86.811989 81.403801
528 5 1  0.000000 53.632797 87.612808 81.334770
529 5 1  0.000000 55.165417 87.630829 80.783066
530 5 1  0.000000 56.607590 87.292198 80.321732
531 5 1  0.000000 57.229591 88.608330 79.688835
532 5 1  0.000000 58.224247 88.429779 78.514191
533 5 1  0.000000 59.592415 88.239456 79.203064
534 5 1  0.000000 60.096539 89.694954 79.017456
535 5 1  0.000000 61.478786 89.758514 78.039642
536 5 1  0.000000 62.610538 90.125916 79.038055
537 5 1  0.000000 64.125595 89.769608 78.710556
538 5 1  0.000000 65.577759 89.595306 78.968491
539 5 1  0.000000 66.181763 89.423637 80.383896
540 5 1  0.000000 66.990387 90.137413 79.368507
541 5 1  0.000000 68.560463 89.929268 78.726692
542 5 1  0.000000 69.618965 89.481979 79.675018
543 5 1  0.000000 71.230087 89.087395 79.760300
544 5 1  0.000000 71.900566 87.859474 79.364304
545 5 1  0.000000 73.202095 87.430328 79.869293
546 5 1  0.000000 74.829895 87.463966 79.519852
547 5 1  0.000000 76.230446 86.594643 79.120926
548 5 1  0.000000 77.392952 87.219559 79.988121
549 5 1  0.000000 78.315239 86.480690 79.158211
550 5 1  0.000000 79.219208 85.493416 78.649689
551 5 1  0.000000 80.757385 85.889206 78.508766
552 5 1  0.000000 82.242599 85.373436 78.317085
553 5 1  0.000000 83.670166 85.814308 78.632912
554 5 1  0.000000 85.137589 86.450584 78.479919
555 5 1  0.000000 86.261955 87.492996 78.361740
556 5 1  0.000000 87.463509 86.719688 78.903610
557 5 1  0.000000 88.661842 86.161880 79.717567
558 5 1  0.000000 88.962791 85.763390 78.260399
559 5 1  0.000000 90.366066 85.739342 78.768524
560 5 1  0.000000 91.420151 86.968979 78.791054
561 5 1  0.000000 92.750435 87.181946 79.740662
562 5 1  0.000000 93.535172 88.547226 79.820068
563 5 1  0.000000 94.725883 89.058502 79.130676
564 5 1  0.000000 96.194420 89.032623 79.002159
565 5 1  0.000000 97.199806 89.570732 79.915596
566 5 1  0.000000 98.771492 89.625923 79.439117
567 5 1  0.000000 99.405403 89.450142 78.131409
568 5 1  0.000000 100.935631 89.695297 77.679138
569 5 1  0.000000 102.435081 89.520920 77.412209
570 5 1  0.000000 103.783348 88.971893 77.496422
571 5 1  0.000000 104.639847 87.911072 78.222168
572 5 1  0.000000 106.196220 87.693367 78.279045
573 5 1  0.000000 107.151588 86.787224 79.087906
574 5 1  0.000000 108.125862 85.960800 79.902687
575 5 1  0.000000 109.582817 85.818443 80.293633
576 5 1  0.000000 110.911850 85.505547 79.896698
577 5 1  0.000000 112.326942 85.222511 79.267525
578 5 1  0.000000 113.719139 84.734589 78.953079
579 5 1  0.000000 115.005920 85.398308 79.037682
580 5 1  0.000000 116.342796 84.855804 79.769112
581 5 1  0.000000 117.744247 84.266479 79.095558
582 5 1  0.000000 119.076736 84.513939 78.439575
583 5 1  0.000000 120.509102 84.349495 77.852669
584 5 1  0.000000 121.675613 85.603210 78.187401
585 5 1  0.000000 122.938332 85.111191 79.014137
586 5 1  0.000000 122.872238 85.577667 80.380051
587 5 1  0.000000 124.065727 86.678436 80.577110
588 5 1  0.000000 125.492889 86.791351 80.138062
589 5 1  0.000000 126.197456 87.507744 78.813278
590 5 1  0.000000 126.985016 86.126755 78.881203
591 5 1  0.000000 127.792007 85.150833 79.780190
592 5 1  0.000000 128.994659 84.340065 80.112152
593 5 1  0.000000 129.865967 84.593819 78.933426
594 5 1  0.000000 130.041885 84.063026 80.372185
595 5 1  0.000000 130.907898 84.652824 81.491280
596 5 1  0.000000 132.164261 84.601578 82.462936
597 5 1  0.000000 133.355835 85.132103 81.432976
598 5 1  0.000000 133.745911 85.251572 79.951965
599 5 1  0.000000 133.873215 86.742203 79.293015
600 5 1  0.000000 132.744293 86.617874 78.015999
601 6 1  0.000000 25.541006 97.022690 79.578056
602 6 1  0.000000 25.512794 96.099548 78.557228
603 6 1  0.000000 26.750938 95.246384 78.306404
604 6 1  0.000000 28.095076 95.892815 78.752403
605 6 1  0.000000 29.528208 95.503403 79.234505
606 6 1  0.000000 30.470432 96.220230 80.362427
607 6 1  0.000000 30.494461 97.430756 79.491516
608 6 1  0.000000 32.019382 97.455338 80.019096
609 6 1  0.000000 32.647270 98.784912 79.758011
610 6 1  0.000000 33.888836 98.964828 79.041222
611 6 1  0.000000 34.715195 100.200226 78.579727
612 6 1  0.000000 35.793442 99.365829 79.515457
613 6 1  0.000000 36.747921 98.774826 78.579643
614 6 1  0.000000 37.695053 99.876328 77.778748
615 6 1  0.000000 39.109547 100.536469 78.094376