Created with TaichiMD

1000 atoms
990 bonds
  0 angles
  0 dihedrals
  0 impropers

1 atom types
1 bond types
0 angle types
0 dihedral types
0 improper types

-80.00000  80.00000 xlo xhi
-80.00000  80.00000 ylo yhi
-80.00000  80.00000 zlo zhi

Masses

1  1.0000

Atoms

  1 0 1  0.000000 85.619164 14.666255 87.369217
  2 0 1  0.000000 85.069275 14.516630 85.952217
  3 0 1  0.000000 86.270584 15.319104 86.149002
  4 0 1  0.000000 87.678505 15.104653 85.230614
  5 0 1  0.000000 87.960388 16.018303 84.150696
  6 0 1  0.000000 87.219208 16.838335 83.090073
  7 0 1  0.000000 85.923874 16.543488 82.504990
  8 0 1  0.000000 84.812668 15.795039 81.704811
  9 0 1  0.000000 83.476562 15.865707 82.247856
 10 0 1  0.000000 82.144432 16.354229 81.746475
 11 0 1  0.000000 82.271126 16.680609 80.095612
 12 0 1  0.000000 80.996780 15.872066 79.504395
 13 0 1  0.000000 79.805275 16.732834 79.799934
 14 0 1  0.000000 79.669212 16.001232 78.373268
 15 0 1  0.000000 79.138290 15.176799 77.262466
 16 0 1  0.000000 77.713760 14.964234 77.770035
 17 0 1  0.000000 76.971375 13.877288 76.777184
 18 0 1  0.000000 76.102272 12.596443 76.802376
 19 0 1  0.000000 75.180977 12.450829 77.915611
 20 0 1  0.000000 73.643440 12.245374 78.053833
 21 0 1  0.000000 73.891167 11.556236 79.562607
 22 0 1  0.000000 74.703102 10.289354 79.609062
 23 0 1  0.000000 76.013008  9.871248 80.493637
 24 0 1  0.000000 77.117340 10.605086 81.026268
 25 0 1  0.000000 78.025902 10.599917 79.838303
 26 0 1  0.000000 79.230087 11.459270 79.379272
 27 0 1  0.000000 79.462036 10.394093 78.303131
 28 0 1  0.000000 78.406647  9.396209 77.532242
 29 0 1  0.000000 78.241112  8.591491 76.249573
 30 0 1  0.000000 77.778374  9.355645 74.955223
 31 0 1  0.000000 78.885384  9.464027 73.814568
 32 0 1  0.000000 78.040611  9.380818 72.553207
 33 0 1  0.000000 76.994308  8.912082 71.732964
 34 0 1  0.000000 77.483093  7.734224 70.905907
 35 0 1  0.000000 76.887062  8.599272 69.927628
 36 0 1  0.000000 77.612694  7.510156 69.280533
 37 0 1  0.000000 79.001701  6.939948 69.060699
 38 0 1  0.000000 80.585052  6.966625 68.664017
 39 0 1  0.000000 81.716354  7.510027 69.651276
 40 0 1  0.000000 81.642975  9.006371 69.933914
 41 0 1  0.000000 82.670258 10.103875 69.410217
 42 0 1  0.000000 81.806328 10.361432 68.250046
 43 0 1  0.000000 82.018982 11.932156 68.338982
 44 0 1  0.000000 82.804794 13.113925 69.022583
 45 0 1  0.000000 81.999855 14.157398 69.646149
 46 0 1  0.000000 82.313271 15.640773 70.186432
 47 0 1  0.000000 83.735527 16.036947 70.061432
 48 0 1  0.000000 85.239578 16.165680 69.734558
 49 0 1  0.000000 86.348557 15.188230 70.268089
 50 0 1  0.000000 86.928352 14.210252 69.219292
 51 0 1  0.000000 86.647354 12.753286 70.005966
 52 0 1  0.000000 86.868736 11.302764 69.517654
 53 0 1  0.000000 87.460999  9.959993 69.180901
 54 0 1  0.000000 87.004120 10.243767 70.545372
 55 0 1  0.000000 87.247871  8.568413 70.548378
 56 0 1  0.000000 86.438271  7.195178 70.721626
 57 0 1  0.000000 87.115799  6.260852 71.864357
 58 0 1  0.000000 85.673874  6.510776 72.263481
 59 0 1  0.000000 84.141739  6.103376 72.274529
 60 0 1  0.000000 83.326263  5.103650 72.761826
 61 0 1  0.000000 83.501419  6.318645 73.975113
 62 0 1  0.000000 82.521828  6.262247 75.281990
 63 0 1  0.000000 82.104767  7.700910 75.255043
 64 0 1  0.000000 82.981392  7.911365 76.639633
 65 0 1  0.000000 83.410378  9.307241 77.178749
 66 0 1  0.000000 82.653809 10.596830 76.872231
 67 0 1  0.000000 82.851852 11.090189 75.539879
 68 0 1  0.000000 82.846756 11.562639 74.215698
 69 0 1  0.000000 84.368088 11.840991 74.074348
 70 0 1  0.000000 85.770660 11.031896 74.178162
 71 0 1  0.000000 87.129745 10.056681 73.887955
 72 0 1  0.000000 86.789696  8.784528 74.977470
 73 0 1  0.000000 87.392685  7.831819 76.120773
 74 0 1  0.000000 88.733063  7.246780 75.293396
 75 0 1  0.000000 90.119865  6.609898 75.976036
 76 0 1  0.000000 91.397835  7.034820 75.103035
 77 0 1  0.000000 92.533104  7.777343 74.218742
 78 0 1  0.000000 92.494171  6.532149 73.180984
 79 0 1  0.000000 92.331421  8.194585 73.113258
 80 0 1  0.000000 92.781334  9.606139 73.010513
 81 0 1  0.000000 93.678139 10.933913 72.959099
 82 0 1  0.000000 92.010788 11.222890 72.759636
 83 0 1  0.000000 91.659431 12.731979 72.934738
 84 0 1  0.000000 90.742798 13.888078 73.373146
 85 0 1  0.000000 91.434143 14.004766 74.709312
 86 0 1  0.000000 90.452843 13.333055 75.779877
 87 0 1  0.000000 89.937065 13.510680 77.168533
 88 0 1  0.000000 88.441307 13.538965 77.475128
 89 0 1  0.000000 88.278450 11.969492 77.374542
 90 0 1  0.000000 86.786156 11.747798 77.895370
 91 0 1  0.000000 86.695869 10.996737 79.271042
 92 0 1  0.000000 86.638390 10.621801 80.885384
 93 0 1  0.000000 85.765831 10.334038 82.141464
 94 0 1  0.000000 86.267235  9.348408 83.274078
 95 0 1  0.000000 86.860344  9.869116 84.735489
 96 0 1  0.000000 87.759834  9.957092 85.916580
 97 0 1  0.000000 87.637901  8.907339 86.996452
 98 0 1  0.000000 88.026741  7.493298 87.590340
 99 0 1  0.000000 88.273193  8.360777 88.839264
100 0 1  0.000000 89.842468  8.266423 89.017891
101 1 1  0.000000 73.715157 16.634628 76.505516
102 1 1  0.000000 74.869728 17.595341 75.973030
103 1 1  0.000000 75.206200 18.612850 75.061546
104 1 1  0.000000 76.026573 19.056683 73.813484
105 1 1  0.000000 77.532738 19.181698 74.143387
106 1 1  0.000000 78.038544 20.552567 74.357002
107 1 1  0.000000 78.806725 21.600603 75.078285
108 1 1  0.000000 77.787239 22.440399 75.998955
109 1 1  0.000000 78.453903 22.043205 77.316841
110 1 1  0.000000 78.335129 21.698954 78.613464
111 1 1  0.000000 78.527634 22.531059 79.880272
112 1 1  0.000000 79.017242 23.858755 79.798973
113 1 1  0.000000 78.916382 24.769300 81.143379
114 1 1  0.000000 79.918747 26.036358 81.542183
115 1 1  0.000000 80.736893 26.608360 80.292198
116 1 1  0.000000 79.542503 27.496542 80.376083
117 1 1  0.000000 79.403275 28.882698 80.412552
118 1 1  0.000000 78.293343 29.572895 79.578697
119 1 1  0.000000 78.481789 30.649313 80.634766
120 1 1  0.000000 78.390411 31.080580 82.062325
121 1 1  0.000000 77.311226 31.081367 83.092255
122 1 1  0.000000 76.129875 31.824457 82.277130
123 1 1  0.000000 75.051010 32.517078 81.471542
124 1 1  0.000000 74.714577 33.848999 80.863258
125 1 1  0.000000 73.794731 34.919167 81.372231
126 1 1  0.000000 74.496872 35.951107 80.459030
127 1 1  0.000000 74.171432 37.252792 81.397400
128 1 1  0.000000 73.847641 37.211441 82.902573
129 1 1  0.000000 74.454567 38.710320 83.534660
130 1 1  0.000000 75.395676 38.024654 84.482925
131 1 1  0.000000 75.640022 36.799408 85.455437
132 1 1  0.000000 76.804054 36.044479 84.992523
133 1 1  0.000000 77.521729 35.874027 83.694580
134 1 1  0.000000 78.445068 34.876144 82.892319
135 1 1  0.000000 78.893486 35.788261 81.913078
136 1 1  0.000000 78.914940 36.230465 80.497223
137 1 1  0.000000 79.654266 37.088539 81.506760
138 1 1  0.000000 80.221901 37.948727 82.745125
139 1 1  0.000000 80.142052 39.418507 83.372559
140 1 1  0.000000 79.832550 38.143635 84.231621
141 1 1  0.000000 79.924118 38.497242 85.545898
142 1 1  0.000000 80.280167 37.220661 86.409103
143 1 1  0.000000 81.029266 35.761436 86.464378
144 1 1  0.000000 82.043701 34.773903 86.907280
145 1 1  0.000000 83.518227 34.743393 86.282387
146 1 1  0.000000 84.574860 35.795017 86.212471
147 1 1  0.000000 84.759598 36.519455 84.699097
148 1 1  0.000000 83.937698 35.978020 83.327301
149 1 1  0.000000 84.117393 36.960667 82.182114
150 1 1  0.000000 84.069351 37.000240 80.736450
151 1 1  0.000000 84.413101 38.425575 80.686462
152 1 1  0.000000 84.175400 39.101673 79.455963
153 1 1  0.000000 84.741165 40.283367 80.244514
154 1 1  0.000000 84.421211 41.852150 80.416542
155 1 1  0.000000 85.041946 41.948978 81.977852
156 1 1  0.000000 84.579247 43.488770 82.214455
157 1 1  0.000000 85.519844 43.392330 83.371452
158 1 1  0.000000 84.070580 43.888062 83.823479
159 1 1  0.000000 83.334557 44.465439 85.074997
160 1 1  0.000000 82.025642 43.828728 85.856262
161 1 1  0.000000 82.986908 44.781040 86.730858
162 1 1  0.000000 83.410408 45.677528 87.869057
163 1 1  0.000000 82.473076 44.913456 88.705963
164 1 1  0.000000 81.131805 45.114769 89.477066
165 1 1  0.000000 80.109299 44.208340 90.023491
166 1 1  0.000000 79.445190 43.505745 88.682549
167 1 1  0.000000 79.005333 42.131115 88.400536
168 1 1  0.000000 79.714867 40.951054 89.063271
169 1 1  0.000000 81.213562 40.487431 88.887123
170 1 1  0.000000 82.683868 40.408760 88.542236
171 1 1  0.000000 83.052887 39.995258 90.032593
172 1 1  0.000000 84.324715 39.555889 89.111397
173 1 1  0.000000 84.894066 39.808586 87.685799
174 1 1  0.000000 85.838867 39.949764 86.417152
175 1 1  0.000000 86.873512 40.374294 85.219009
176 1 1  0.000000 88.217384 41.016903 84.997032
177 1 1  0.000000 89.027290 40.347248 84.008179
178 1 1  0.000000 89.335052 38.845921 83.649437
179 1 1  0.000000 89.943192 38.924129 82.273079
180 1 1  0.000000 88.759003 39.209248 81.438622
181 1 1  0.000000 89.705055 38.200802 80.636848
182 1 1  0.000000 88.749886 38.402569 79.395340
183 1 1  0.000000 88.042336 37.728867 78.166557
184 1 1  0.000000 87.514397 38.517357 76.970940
185 1 1  0.000000 87.459641 39.471447 75.667648
186 1 1  0.000000 86.904716 40.730064 76.447395
187 1 1  0.000000 86.427910 42.233089 76.420273
188 1 1  0.000000 87.649002 42.124859 77.225624
189 1 1  0.000000 87.294861 43.144295 78.318207
190 1 1  0.000000 88.394745 42.803009 79.210762
191 1 1  0.000000 89.789551 43.368172 79.565285
192 1 1  0.000000 90.921661 42.252010 78.939804
193 1 1  0.000000 92.120956 41.599422 78.082848
194 1 1  0.000000 91.483398 40.669395 77.039024
195 1 1  0.000000 91.116066 39.375546 76.379578
196 1 1  0.000000 92.620407 39.240849 76.833199
197 1 1  0.000000 93.839264 38.250427 76.524315
198 1 1  0.000000 95.248810 38.095806 76.271309
199 1 1  0.000000 95.212860 36.629631 76.589920
200 1 1  0.000000 95.263962 36.711643 78.025017
201 2 1  0.000000 75.176025 35.037933 75.463158
202 2 1  0.000000 75.987556 33.653385 75.314995
203 2 1  0.000000 77.568077 33.922321 75.820923
204 2 1  0.000000 78.802040 34.905125 76.246964
205 2 1  0.000000 79.427948 35.423969 74.956192
206 2 1  0.000000 78.693047 35.995113 73.759445
207 2 1  0.000000 79.179214 37.299530 73.249687
208 2 1  0.000000 78.306808 38.008907 72.345390
209 2 1  0.000000 77.184097 38.786800 72.864708
210 2 1  0.000000 75.733353 39.353630 72.785736
211 2 1  0.000000 76.148094 39.715080 71.271141
212 2 1  0.000000 74.893402 39.274174 70.487396
213 2 1  0.000000 75.043648 40.439228 69.530243
214 2 1  0.000000 73.796608 41.397583 69.622597
215 2 1  0.000000 73.016922 42.186440 68.673248
216 2 1  0.000000 73.280952 43.352249 67.745316
217 2 1  0.000000 72.425522 44.695465 67.555939
218 2 1  0.000000 71.718872 45.776150 66.651711
219 2 1  0.000000 71.843056 47.388916 67.040810
220 2 1  0.000000 73.204010 48.255638 67.361748
221 2 1  0.000000 74.200783 48.705830 68.624725
222 2 1  0.000000 75.088974 48.830025 69.676666
223 2 1  0.000000 76.170410 47.781643 69.931412
224 2 1  0.000000 75.868019 46.150475 70.098145
225 2 1  0.000000 75.147552 44.983734 70.402634
226 2 1  0.000000 76.449257 44.853859 70.981644
227 2 1  0.000000 77.556709 44.253391 71.773392
228 2 1  0.000000 78.805862 43.246586 71.750191
229 2 1  0.000000 80.274712 42.921761 71.652695
230 2 1  0.000000 81.315910 41.855282 71.547737
231 2 1  0.000000 82.005882 40.894276 70.498901
232 2 1  0.000000 80.632172 41.068676 69.769928
233 2 1  0.000000 80.191727 40.813499 68.220566
234 2 1  0.000000 78.729546 41.490391 68.297791
235 2 1  0.000000 77.829712 42.632668 68.235428
236 2 1  0.000000 78.654907 43.140907 67.093102
237 2 1  0.000000 78.717377 44.763824 67.131897
238 2 1  0.000000 80.108597 45.001648 67.589043
239 2 1  0.000000 80.236252 46.186554 68.525879
240 2 1  0.000000 80.409569 47.023609 69.806335
241 2 1  0.000000 80.950844 47.897766 70.782417
242 2 1  0.000000 81.127693 47.562851 72.125137
243 2 1  0.000000 79.622070 47.752602 72.466835
244 2 1  0.000000 79.110260 47.252590 73.921082
245 2 1  0.000000 77.845848 46.515007 74.717583
246 2 1  0.000000 77.189629 47.949657 74.179756
247 2 1  0.000000 75.470848 47.711109 74.021179
248 2 1  0.000000 74.757286 49.132225 74.530083
249 2 1  0.000000 74.216942 50.147537 73.517288
250 2 1  0.000000 73.381378 51.448769 73.742828
251 2 1  0.000000 72.552902 52.549835 74.341507
252 2 1  0.000000 73.770485 53.442936 74.399727
253 2 1  0.000000 73.588181 54.842911 75.178207
254 2 1  0.000000 75.079903 54.833065 74.894379
255 2 1  0.000000 75.635956 56.002354 75.813972
256 2 1  0.000000 76.471916 56.467709 74.603920
257 2 1  0.000000 77.360992 56.708153 73.254761
258 2 1  0.000000 78.194542 55.779396 72.436218
259 2 1  0.000000 78.465256 54.683575 71.298645
260 2 1  0.000000 77.854103 53.541504 72.124115
261 2 1  0.000000 77.594345 52.652473 70.898140
262 2 1  0.000000 77.836639 51.682007 72.168091
263 2 1  0.000000 78.422485 51.776810 73.579613
264 2 1  0.000000 78.691124 51.218487 75.036148
265 2 1  0.000000 77.915352 51.640438 76.179245
266 2 1  0.000000 76.468369 51.387440 76.741623
267 2 1  0.000000 76.256096 50.851284 78.240784
268 2 1  0.000000 77.231407 50.436047 79.278526
269 2 1  0.000000 78.596001 50.464432 79.938889
270 2 1  0.000000 79.981026 50.595566 80.654938
271 2 1  0.000000 81.492073 50.955597 80.209908
272 2 1  0.000000 82.654366 51.295799 79.142128
273 2 1  0.000000 82.629570 50.336788 77.944038
274 2 1  0.000000 82.382210 51.919151 77.695442
275 2 1  0.000000 81.941605 53.400414 77.283401
276 2 1  0.000000 80.636795 54.207615 77.428581
277 2 1  0.000000 80.330299 54.439674 75.940712
278 2 1  0.000000 80.027550 55.662434 76.726868
279 2 1  0.000000 80.184441 56.997593 75.773773
280 2 1  0.000000 81.034622 57.071720 74.474571
281 2 1  0.000000 81.574196 57.758606 75.640709
282 2 1  0.000000 81.383850 58.551926 77.129303
283 2 1  0.000000 82.746185 58.956879 77.692207
284 2 1  0.000000 83.948860 57.999893 77.873878
285 2 1  0.000000 84.948891 57.224041 76.933823
286 2 1  0.000000 85.812775 56.759220 78.226593
287 2 1  0.000000 86.400444 55.406815 78.498581
288 2 1  0.000000 86.596283 54.252083 79.441856
289 2 1  0.000000 85.910706 53.452045 80.461456
290 2 1  0.000000 85.735672 53.102818 81.901421
291 2 1  0.000000 86.730835 53.462894 83.327789
292 2 1  0.000000 86.007309 52.911495 84.687912
293 2 1  0.000000 84.922867 53.332352 85.741211
294 2 1  0.000000 84.983391 54.372410 86.847275
295 2 1  0.000000 86.095772 54.391140 87.835060
296 2 1  0.000000 86.356491 55.416260 88.935707
297 2 1  0.000000 85.983276 56.925236 89.042038
298 2 1  0.000000 86.317253 57.844402 90.298882
299 2 1  0.000000 85.519051 58.714832 89.099991
300 2 1  0.000000 85.400513 60.215591 89.402962
301 3 1  0.000000 67.631744 57.201305 78.742363
302 3 1  0.000000 68.576744 57.811131 79.666046
303 3 1  0.000000 68.353325 56.543144 80.316917
304 3 1  0.000000 68.013374 56.888664 81.861778
305 3 1  0.000000 66.958511 57.521912 82.663071
306 3 1  0.000000 66.921295 56.721954 84.019005
307 3 1  0.000000 67.264458 58.033466 84.821938
308 3 1  0.000000 67.850548 59.642799 84.747749
309 3 1  0.000000 68.215736 61.182980 84.949326
310 3 1  0.000000 67.919518 60.729946 86.356071
311 3 1  0.000000 69.123444 61.737694 86.852966
312 3 1  0.000000 69.312035 60.658272 87.819214
313 3 1  0.000000 70.708267 60.685509 88.396866
314 3 1  0.000000 71.388474 61.661304 89.292747
315 3 1  0.000000 72.712540 62.342812 89.151054
316 3 1  0.000000 72.377937 63.864822 89.370506
317 3 1  0.000000 71.094818 64.717087 89.439568
318 3 1  0.000000 71.414711 66.288826 89.238426
319 3 1  0.000000 72.454521 66.474167 87.951233
320 3 1  0.000000 73.065643 66.051109 86.455017
321 3 1  0.000000 74.632881 66.245491 86.665649
322 3 1  0.000000 75.612732 65.572670 87.637894
323 3 1  0.000000 76.863388 65.454620 88.376862
324 3 1  0.000000 78.025887 64.390923 88.264694
325 3 1  0.000000 77.666931 63.330441 87.238548
326 3 1  0.000000 77.599510 61.988956 86.532463
327 3 1  0.000000 77.222260 62.262638 85.132462
328 3 1  0.000000 75.599182 61.964252 85.321663
329 3 1  0.000000 74.367744 61.122372 85.181007
330 3 1  0.000000 73.104568 60.964241 84.571716
331 3 1  0.000000 72.595970 59.571682 84.332253
332 3 1  0.000000 71.571075 60.589413 84.155693
333 3 1  0.000000 71.569145 59.091614 84.357376
334 3 1  0.000000 71.207535 57.707523 84.846687
335 3 1  0.000000 70.941261 56.213299 85.462341
336 3 1  0.000000 70.957123 54.643520 85.093979
337 3 1  0.000000 70.113617 54.925179 83.806404
338 3 1  0.000000 70.157303 53.354816 83.531425
339 3 1  0.000000 70.082565 51.752762 83.509125
340 3 1  0.000000 70.982384 51.303787 82.286728
341 3 1  0.000000 71.717461 50.271019 81.440910
342 3 1  0.000000 70.835449 50.909599 80.347702
343 3 1  0.000000 71.418594 51.142086 78.751244
344 3 1  0.000000 69.995483 51.573780 78.197159
345 3 1  0.000000 70.670074 52.856392 78.862808
346 3 1  0.000000 70.918930 54.461624 79.270065
347 3 1  0.000000 71.496445 55.507690 80.303024
348 3 1  0.000000 72.728226 54.879997 80.161560
349 3 1  0.000000 73.350014 54.365368 81.709473
350 3 1  0.000000 74.251488 55.453827 82.767677
351 3 1  0.000000 74.428963 55.561085 84.369148
352 3 1  0.000000 75.440254 56.596992 84.842041
353 3 1  0.000000 75.925339 55.944775 86.355331
354 3 1  0.000000 77.501045 56.304241 86.312874
355 3 1  0.000000 78.004189 56.718582 87.704750
356 3 1  0.000000 78.716446 55.303749 87.423653
357 3 1  0.000000 78.632988 54.087856 88.318886
358 3 1  0.000000 79.405769 52.930473 87.717949
359 3 1  0.000000 78.221077 53.074886 86.589920
360 3 1  0.000000 77.842339 51.963757 85.743790
361 3 1  0.000000 79.056656 51.296463 85.332771
362 3 1  0.000000 77.855339 51.999931 84.286888
363 3 1  0.000000 78.568138 52.695869 83.125763
364 3 1  0.000000 78.249474 53.719471 82.008331
365 3 1  0.000000 77.777740 54.572273 80.659409
366 3 1  0.000000 78.711258 55.383629 81.637230
367 3 1  0.000000 78.625656 56.296238 82.852692
368 3 1  0.000000 79.084908 57.528069 82.415619
369 3 1  0.000000 80.290123 57.297028 81.348289
370 3 1  0.000000 81.705666 57.592339 81.443787
371 3 1  0.000000 82.790817 56.479156 81.361389
372 3 1  0.000000 82.390877 55.521332 82.531441
373 3 1  0.000000 83.308929 55.664894 83.804001
374 3 1  0.000000 84.093605 56.911015 83.874374
375 3 1  0.000000 82.735191 56.816364 84.783569
376 3 1  0.000000 82.199661 57.812237 85.580437
377 3 1  0.000000 82.585258 59.361916 85.043320
378 3 1  0.000000 83.902878 59.650059 85.797882
379 3 1  0.000000 84.497185 61.101837 85.891876
380 3 1  0.000000 85.770142 60.350750 85.124786
381 3 1  0.000000 87.195412 59.880180 84.776215
382 3 1  0.000000 88.262840 60.802849 84.259232
383 3 1  0.000000 87.409317 60.785900 82.867271
384 3 1  0.000000 86.988205 61.310154 81.429214
385 3 1  0.000000 86.430450 62.648537 81.151596
386 3 1  0.000000 85.230225 61.694458 81.606873
387 3 1  0.000000 84.052399 62.540958 81.250748
388 3 1  0.000000 85.103584 63.834419 81.461372
389 3 1  0.000000 84.910538 65.338181 81.682518
390 3 1  0.000000 84.956436 66.495064 82.815056
391 3 1  0.000000 86.607452 66.666481 82.731422
392 3 1  0.000000 85.874374 68.036232 83.183586
393 3 1  0.000000 86.071190 69.595749 83.462883
394 3 1  0.000000 86.847290 70.775505 83.083054
395 3 1  0.000000 88.313454 70.632957 82.566635
396 3 1  0.000000 88.451805 71.938377 81.670532
397 3 1  0.000000 88.259674 73.439789 81.700600
398 3 1  0.000000 87.350456 73.986115 80.510971
399 3 1  0.000000 87.318527 75.273354 81.580193
400 3 1  0.000000 86.730392 76.677681 81.214668
401 4 1  0.000000 71.431877 71.084908 82.504700
402 4 1  0.000000 70.812820 70.692314 81.028687
403 4 1  0.000000 71.169479 71.202454 79.565315
404 4 1  0.000000 70.568459 69.701294 79.575363
405 4 1  0.000000 70.907982 68.424316 78.504318
406 4 1  0.000000 71.109215 66.962158 79.034096
407 4 1  0.000000 71.612610 65.870697 79.882690
408 4 1  0.000000 71.964844 65.270164 81.251968
409 4 1  0.000000 72.814011 66.140839 82.027748
410 4 1  0.000000 73.455162 64.971001 82.715729
411 4 1  0.000000 74.305908 64.301651 81.777061
412 4 1  0.000000 75.583794 64.955566 81.481560
413 4 1  0.000000 75.794060 64.855232 79.766792
414 4 1  0.000000 75.339088 63.464546 79.034088
415 4 1  0.000000 76.239059 64.650017 78.561417
416 4 1  0.000000 76.167549 65.698425 77.488892
417 4 1  0.000000 75.854584 66.725311 76.464638
418 4 1  0.000000 76.097443 67.744667 77.710670
419 4 1  0.000000 75.133331 69.088203 77.492760
420 4 1  0.000000 74.898979 69.291534 79.164047
421 4 1  0.000000 74.787399 69.394966 80.696053
422 4 1  0.000000 75.886497 68.643738 81.151367
423 4 1  0.000000 76.459557 68.378593 82.478310
424 4 1  0.000000 76.273727 69.274269 83.724564
425 4 1  0.000000 75.113960 69.376183 84.727211
426 4 1  0.000000 74.028687 70.281166 84.834679
427 4 1  0.000000 73.874695 71.386475 86.009514
428 4 1  0.000000 74.230858 72.862030 86.395622
429 4 1  0.000000 74.401192 73.055145 84.863815
430 4 1  0.000000 74.892097 73.642838 83.383644
431 4 1  0.000000 76.114243 73.199867 82.736031
432 4 1  0.000000 77.329308 72.695656 81.721832
433 4 1  0.000000 78.064629 73.185730 80.494957
434 4 1  0.000000 78.236595 71.883820 79.792206
435 4 1  0.000000 79.304367 71.382408 78.817970
436 4 1  0.000000 78.769760 71.762260 77.258247
437 4 1  0.000000 79.393379 71.069443 75.865616
438 4 1  0.000000 79.516479 69.671425 75.297951
439 4 1  0.000000 79.391991 68.428452 74.542290
440 4 1  0.000000 80.442368 67.167320 74.286453
441 4 1  0.000000 79.885460 66.037041 73.693024
442 4 1  0.000000 80.980835 64.908714 73.454010
443 4 1  0.000000 79.576859 64.064369 73.411285
444 4 1  0.000000 78.976166 62.994068 74.539116
445 4 1  0.000000 78.043137 62.096401 75.311249
446 4 1  0.000000 78.568489 62.098961 76.781792
447 4 1  0.000000 77.730919 61.293888 77.699089
448 4 1  0.000000 78.790245 61.213184 78.944214
449 4 1  0.000000 78.899185 62.384686 79.960075
450 4 1  0.000000 79.687447 63.017529 81.290840
451 4 1  0.000000 80.806389 63.711376 81.884346
452 4 1  0.000000 81.370049 64.781235 80.613815
453 4 1  0.000000 80.428177 65.731491 81.270180
454 4 1  0.000000 81.024078 66.964088 80.366241
455 4 1  0.000000 82.491478 67.507919 80.026306
456 4 1  0.000000 82.888634 67.626572 78.670242
457 4 1  0.000000 83.112991 68.986877 79.420685
458 4 1  0.000000 84.498848 69.453239 78.713417
459 4 1  0.000000 85.067123 70.660728 79.344254
460 4 1  0.000000 83.622185 71.246864 79.993561
461 4 1  0.000000 83.546883 72.699638 79.475601
462 4 1  0.000000 82.239235 73.415131 79.761497
463 4 1  0.000000 82.110794 74.861740 80.067993
464 4 1  0.000000 81.934570 76.044151 80.905487
465 4 1  0.000000 80.955902 75.875244 82.011551
466 4 1  0.000000 80.181847 76.534767 80.867546
467 4 1  0.000000 79.936432 75.708923 82.446770
468 4 1  0.000000 79.292053 76.726524 83.415894
469 4 1  0.000000 78.409676 76.525444 84.457993
470 4 1  0.000000 77.217957 76.074394 85.265701
471 4 1  0.000000 77.453941 76.530357 86.702316
472 4 1  0.000000 78.158401 75.762306 87.762177
473 4 1  0.000000 78.716843 75.081161 89.065826
474 4 1  0.000000 78.116066 73.699074 88.786148
475 4 1  0.000000 78.302917 73.117065 87.578354
476 4 1  0.000000 78.112061 71.802704 86.758141
477 4 1  0.000000 78.930367 70.716515 87.224503
478 4 1  0.000000 79.283417 69.731781 86.062378
479 4 1  0.000000 79.688057 70.517288 84.863785
480 4 1  0.000000 80.456116 71.441986 83.664886
481 4 1  0.000000 81.940269 71.501366 84.479164
482 4 1  0.000000 82.543709 72.656265 83.841591
483 4 1  0.000000 83.203911 73.880707 84.673080
484 4 1  0.000000 82.940552 74.087524 86.133232
485 4 1  0.000000 82.144287 74.929199 87.297440
486 4 1  0.000000 83.174149 74.762253 88.535851
487 4 1  0.000000 84.146843 74.758957 89.695786
488 4 1  0.000000 83.384224 73.508453 90.194336
489 4 1  0.000000 83.457718 72.020569 90.845169
490 4 1  0.000000 82.242668 71.257683 90.230797
491 4 1  0.000000 83.515755 71.007690 89.505989
492 4 1  0.000000 84.085945 69.723770 88.743645
493 4 1  0.000000 84.205315 68.128227 88.383316
494 4 1  0.000000 85.285522 67.167305 89.144775
495 4 1  0.000000 85.833076 66.831329 90.706390
496 4 1  0.000000 86.906563 67.953781 90.952156
497 4 1  0.000000 87.464783 68.368607 89.572235
498 4 1  0.000000 88.869705 68.457031 90.337135
499 4 1  0.000000 88.778862 69.789520 90.978218
500 4 1  0.000000 89.349373 70.544388 89.712173
501 5 1  0.000000 76.438316 93.896355 92.818481
502 5 1  0.000000 77.186859 95.314186 93.060043
503 5 1  0.000000 76.326263 94.415871 92.124748
504 5 1  0.000000 75.202339 95.029655 91.376434
505 5 1  0.000000 73.696259 94.891983 90.865074
506 5 1  0.000000 74.315315 95.489494 89.577591
507 5 1  0.000000 73.209496 94.418510 89.195862
508 5 1  0.000000 72.946587 94.810562 87.678009
509 5 1  0.000000 73.534241 94.310509 86.337875
510 5 1  0.000000 74.473785 92.898193 86.343170
511 5 1  0.000000 75.890335 92.706383 87.017532
512 5 1  0.000000 76.586815 91.979950 88.138573
513 5 1  0.000000 77.555878 91.351898 88.935143
514 5 1  0.000000 78.321114 90.078178 89.462112
515 5 1  0.000000 77.137085 89.008553 89.233414
516 5 1  0.000000 77.392395 88.254410 87.811234
517 5 1  0.000000 77.461212 87.757034 86.162071
518 5 1  0.000000 78.295242 88.872108 85.340385
519 5 1  0.000000 79.856903 89.053101 85.557732
520 5 1  0.000000 81.107918 88.339745 85.526161
521 5 1  0.000000 82.361771 89.439842 85.320175
522 5 1  0.000000 83.793701 89.626083 84.856964
523 5 1  0.000000 84.472260 91.058540 85.222656
524 5 1  0.000000 83.326775 92.112640 85.573013
525 5 1  0.000000 83.623039 93.624954 86.141655
526 5 1  0.000000 82.833511 95.026367 85.850479
527 5 1  0.000000 81.404076 94.860107 86.519707
528 5 1  0.000000 79.840942 94.675903 85.921021
529 5 1  0.000000 80.010139 94.142105 84.550461
530 5 1  0.000000 79.883286 94.390343 83.050507
531 5 1  0.000000 79.234940 93.243088 82.296814
532 5 1  0.000000 78.094574 94.098228 82.500000
533 5 1  0.000000 78.929619 94.431252 81.117134
534 5 1  0.000000 78.606613 94.458794 79.642609
535 5 1  0.000000 79.861557 93.969009 78.933662
536 5 1  0.000000 81.143631 95.091484 79.060547
537 5 1  0.000000 82.630058 95.175514 79.480484
538 5 1  0.000000 83.685570 94.656967 80.540230
539 5 1  0.000000 84.260048 93.261238 79.984230
540 5 1  0.000000 83.972031 91.790092 80.081360
541 5 1  0.000000 83.408546 90.454964 80.676636
542 5 1  0.000000 82.153831 90.648415 80.105232
543 5 1  0.000000 80.588295 90.636063 79.886505
544 5 1  0.000000 80.344002 89.152306 79.443626
545 5 1  0.000000 79.021996 89.451996 79.963531
546 5 1  0.000000 77.847290 88.474686 79.739342
547 5 1  0.000000 76.716805 87.482094 79.792290
548 5 1  0.000000 76.150612 86.280037 80.517212
549 5 1  0.000000 75.789749 85.152336 79.684418
550 5 1  0.000000 76.690102 84.338028 78.854164
551 5 1  0.000000 77.374588 83.113998 79.470703
552 5 1  0.000000 77.887192 83.260788 78.038063
553 5 1  0.000000 78.737160 83.962509 77.154938
554 5 1  0.000000 80.061806 84.667831 76.808716
555 5 1  0.000000 80.425613 84.910805 75.351913
556 5 1  0.000000 79.304916 85.143967 74.266045
557 5 1  0.000000 79.854111 86.520912 74.254250
558 5 1  0.000000 78.699081 87.380463 73.511292
559 5 1  0.000000 79.075775 88.730301 74.141502
560 5 1  0.000000 79.126389 90.375160 73.981842
561 5 1  0.000000 80.254219 91.352310 74.329536
562 5 1  0.000000 81.092094 90.806168 75.482491
563 5 1  0.000000 82.594536 90.997223 75.588547
564 5 1  0.000000 83.297058 89.907570 76.390656
565 5 1  0.000000 83.341156 88.674042 75.616173
566 5 1  0.000000 83.280998 87.833115 76.919266
567 5 1  0.000000 84.037155 86.556831 76.428307
568 5 1  0.000000 84.984161 86.484535 75.183037
569 5 1  0.000000 85.266121 85.757866 73.760620
570 5 1  0.000000 86.247498 85.396751 72.581017
571 5 1  0.000000 86.918640 86.563683 72.062950
572 5 1  0.000000 87.943001 87.646217 72.609581
573 5 1  0.000000 88.089081 89.004951 72.958023
574 5 1  0.000000 87.995888 89.669380 74.389618
575 5 1  0.000000 87.859230 89.091454 75.827370
576 5 1  0.000000 88.661263 87.986076 76.586075
577 5 1  0.000000 87.495209 88.555687 77.304771
578 5 1  0.000000 87.101646 88.249557 78.795166
579 5 1  0.000000 87.056557 86.972191 79.767632
580 5 1  0.000000 86.633095 87.143333 81.291679
581 5 1  0.000000 86.713676 87.087044 82.700111
582 5 1  0.000000 85.635147 85.874146 82.790192
583 5 1  0.000000 84.595772 85.268074 83.400986
584 5 1  0.000000 83.373192 84.404335 82.815445
585 5 1  0.000000 83.383934 82.818710 82.801117
586 5 1  0.000000 82.873459 82.887779 81.387901
587 5 1  0.000000 82.718834 81.562317 80.699059
588 5 1  0.000000 83.535988 80.176491 80.498436
589 5 1  0.000000 83.048691 79.696526 79.110497
590 5 1  0.000000 84.648148 79.434258 79.150452
591 5 1  0.000000 85.136887 80.249359 77.866508
592 5 1  0.000000 86.082214 81.315018 77.176491
593 5 1  0.000000 86.970039 81.475105 78.457100
594 5 1  0.000000 87.693558 81.790535 79.809456
595 5 1  0.000000 88.221252 83.122475 79.912033
596 5 1  0.000000 89.040092 84.292885 79.164955
597 5 1  0.000000 89.698204 84.350395 80.534973
598 5 1  0.000000 91.173927 84.519821 80.196632
599 5 1  0.000000 92.170547 84.227249 78.956039
600 5 1  0.000000 93.147202 85.018944 79.714714
601 6 1  0.000000 75.218666 91.873680 80.978821
602 6 1  0.000000 73.784142 92.208710 80.691261
603 6 1  0.000000 73.457222 92.474297 79.196487
604 6 1  0.000000 74.399506 93.740227 79.326950
605 6 1  0.000000 74.346230 93.665260 77.786583
606 6 1  0.000000 75.246811 93.896736 76.537445
607 6 1  0.000000 76.321655 92.785027 76.505180
608 6 1  0.000000 77.517754 93.260025 75.502625
609 6 1  0.000000 78.247032 94.196083 74.669624
610 6 1  0.000000 79.305405 95.346825 75.245750
611 6 1  0.000000 79.168770 96.710480 75.737831
612 6 1  0.000000 78.309494 97.059288 77.165047
613 6 1  0.000000 76.771973 97.332710 77.248428
614 6 1  0.000000 75.962334 97.255707 78.544632
615 6 1  0.000000 75.397171 97.961098 79.785286
616 6 1  0.000000 75.429916 98.694160 81.184669
617 6 1  0.000000 75.679214 98.109703 82.633636
618 6 1  0.000000 77.194214 98.425941 83.083542
619 6 1  0.000000 77.718132 98.392082 84.569878