Created with TaichiMD

1000 atoms
990 bonds
  0 angles
  0 dihedrals
  0 impropers

1 atom types
1 bond types
0 angle types
0 dihedral types
0 improper types

-80.00000  80.00000 xlo xhi
-80.00000  80.00000 ylo yhi
-80.00000  80.00000 zlo zhi

Masses

1 10.0000

Atoms

  1 0 1  0.000000 132.589554  0.075688 100.573349
  2 0 1  0.000000 131.537598  0.357951 98.884468
  3 0 1  0.000000 132.603882  0.384818 97.303406
  4 0 1  0.000000 132.298645  1.910426 98.027000
  5 0 1  0.000000 131.941284  0.271436 97.308250
  6 0 1  0.000000 131.850403 -1.586067 96.600517
  7 0 1  0.000000 131.247620 -2.182911 96.007881
  8 0 1  0.000000 129.806274 -1.787777 96.769623
  9 0 1  0.000000 128.781204 -2.178489 98.055031
 10 0 1  0.000000 129.238998 -1.468219 98.963196
 11 0 1  0.000000 128.044052 -0.137172 99.618103
 12 0 1  0.000000 127.168365  0.640145 100.318344
 13 0 1  0.000000 126.782394 -0.404865 100.970970
 14 0 1  0.000000 125.922676  0.503709 100.559677
 15 0 1  0.000000 125.464600  2.421890 100.442558
 16 0 1  0.000000 124.044975  1.741271 101.484886
 17 0 1  0.000000 122.962967  2.011772 100.108231
 18 0 1  0.000000 121.529259  1.546827 99.449692
 19 0 1  0.000000 121.278549  3.279041 98.280022
 20 0 1  0.000000 119.275673  3.751803 97.699234
 21 0 1  0.000000 119.550575  3.908088 99.390129
 22 0 1  0.000000 117.323204  4.387448 99.065956
 23 0 1  0.000000 115.980011  3.943586 100.569595
 24 0 1  0.000000 115.841682  5.352241 100.323952
 25 0 1  0.000000 114.519005  6.922898 100.175407
 26 0 1  0.000000 112.330208  6.642853 100.467064
 27 0 1  0.000000 111.022057  7.856258 101.188461
 28 0 1  0.000000 109.438660  7.616562 100.830078
 29 0 1  0.000000 107.853668  8.196766 101.672096
 30 0 1  0.000000 106.400009  9.437326 102.224251
 31 0 1  0.000000 104.784317  9.070828 103.251518
 32 0 1  0.000000 103.717735 10.185211 103.404808
 33 0 1  0.000000 102.946915 11.304124 103.979347
 34 0 1  0.000000 101.308907 10.593235 103.577591
 35 0 1  0.000000 99.631203 11.000273 103.926834
 36 0 1  0.000000 98.449570 10.015190 103.076340
 37 0 1  0.000000 97.135628 10.028801 103.931351
 38 0 1  0.000000 96.383835  8.583264 104.128731
 39 0 1  0.000000 94.471962  8.654080 103.236847
 40 0 1  0.000000 93.089050  9.575173 103.879593
 41 0 1  0.000000 91.679832 10.890048 105.213852
 42 0 1  0.000000 90.373131 12.196861 104.750290
 43 0 1  0.000000 88.660583 11.614388 105.257568
 44 0 1  0.000000 87.748528 13.042021 105.335915
 45 0 1  0.000000 86.546257 13.303104 104.660614
 46 0 1  0.000000 85.106659 13.762472 104.063667
 47 0 1  0.000000 83.987808 13.495691 103.614388
 48 0 1  0.000000 81.927750 13.875465 103.228790
 49 0 1  0.000000 81.913857 14.977969 103.374527
 50 0 1  0.000000 80.279327 15.713967 104.624649
 51 0 1  0.000000 79.469460 15.647455 103.086494
 52 0 1  0.000000 78.042091 16.028681 103.883820
 53 0 1  0.000000 77.938408 15.018871 105.288025
 54 0 1  0.000000 77.124954 16.144741 106.049606
 55 0 1  0.000000 75.949097 15.909194 106.559647
 56 0 1  0.000000 75.824081 17.288193 106.137703
 57 0 1  0.000000 74.137444 17.712917 107.167000
 58 0 1  0.000000 73.107277 18.722425 108.161339
 59 0 1  0.000000 71.524353 18.753584 107.557762
 60 0 1  0.000000 70.686241 18.363802 108.041748
 61 0 1  0.000000 69.334824 18.766945 107.472847
 62 0 1  0.000000 67.543770 18.399645 107.729317
 63 0 1  0.000000 66.086174 19.330849 107.042923
 64 0 1  0.000000 65.370659 20.964025 106.677872
 65 0 1  0.000000 65.081024 21.505651 105.258369
 66 0 1  0.000000 64.147621 23.074572 104.416336
 67 0 1  0.000000 63.449745 23.366508 102.996025
 68 0 1  0.000000 62.704494 22.556721 104.474693
 69 0 1  0.000000 61.140549 23.343719 103.944473
 70 0 1  0.000000 59.598190 22.620327 104.401451
 71 0 1  0.000000 57.908115 22.154413 103.433784
 72 0 1  0.000000 58.554855 21.025007 104.873482
 73 0 1  0.000000 57.263603 21.322353 105.565498
 74 0 1  0.000000 55.621250 21.591925 105.204735
 75 0 1  0.000000 53.816170 20.394836 104.487869
 76 0 1  0.000000 54.526340 21.676384 104.262421
 77 0 1  0.000000 54.346802 20.173199 105.207619
 78 0 1  0.000000 53.233536 18.448006 105.513084
 79 0 1  0.000000 51.242973 18.197306 105.021263
 80 0 1  0.000000 50.244114 19.637884 105.177399
 81 0 1  0.000000 48.457470 19.348362 105.899445
 82 0 1  0.000000 46.636436 19.819172 106.024132
 83 0 1  0.000000 45.177387 19.870447 105.972511
 84 0 1  0.000000 45.138554 21.374718 104.794106
 85 0 1  0.000000 44.120472 22.347990 103.930077
 86 0 1  0.000000 43.704800 24.355368 102.955193
 87 0 1  0.000000 44.220894 25.307405 104.304413
 88 0 1  0.000000 43.024048 26.889002 103.880226
 89 0 1  0.000000 41.761959 28.088341 104.203239
 90 0 1  0.000000 41.565922 28.799778 102.493637
 91 0 1  0.000000 41.133873 30.407845 101.594864
 92 0 1  0.000000 39.978344 31.572079 102.604774
 93 0 1  0.000000 39.325386 30.044466 103.078262
 94 0 1  0.000000 38.541245 29.039692 103.803329
 95 0 1  0.000000 37.723747 28.966223 104.843811
 96 0 1  0.000000 37.654968 27.917904 103.962852
 97 0 1  0.000000 37.208668 27.667377 102.695778
 98 0 1  0.000000 38.220451 26.354643 102.920265
 99 0 1  0.000000 36.490723 25.674541 104.052872
100 0 1  0.000000 35.254807 25.257376 103.286591
101 1 1  0.000000 144.240524 44.211269 101.316887
102 1 1  0.000000 142.758469 44.677834 100.758347
103 1 1  0.000000 142.023941 45.584011 100.076988
104 1 1  0.000000 140.756119 45.354588 101.382431
105 1 1  0.000000 139.354599 45.496429 101.333214
106 1 1  0.000000 138.878922 44.770908 99.844780
107 1 1  0.000000 138.622284 43.264874 99.522293
108 1 1  0.000000 137.541229 42.852482 100.435074
109 1 1  0.000000 137.996796 41.382915 100.022621
110 1 1  0.000000 137.176254 40.925777 101.393356
111 1 1  0.000000 136.751480 38.955856 101.183052
112 1 1  0.000000 135.592590 37.565071 100.194244
113 1 1  0.000000 135.440125 36.406174 99.061371
114 1 1  0.000000 134.365784 35.578289 98.576553
115 1 1  0.000000 133.052017 34.801922 97.046951
116 1 1  0.000000 132.066299 33.499809 97.066216
117 1 1  0.000000 131.247330 32.433250 96.731270
118 1 1  0.000000 130.850067 30.737679 96.420372
119 1 1  0.000000 129.137009 30.765205 95.123871
120 1 1  0.000000 127.499626 29.730448 94.419502
121 1 1  0.000000 126.056732 28.160675 94.034897
122 1 1  0.000000 124.238884 28.489914 94.155159
123 1 1  0.000000 123.235176 28.957691 92.474998
124 1 1  0.000000 121.680763 28.789394 91.472633
125 1 1  0.000000 119.681969 27.977648 91.878242
126 1 1  0.000000 118.324310 29.404768 90.625046
127 1 1  0.000000 117.007919 30.321453 91.762009
128 1 1  0.000000 116.648361 32.072563 92.019157
129 1 1  0.000000 115.013367 32.733200 91.375847
130 1 1  0.000000 114.226067 32.143818 90.468788
131 1 1  0.000000 112.478523 33.424076 91.052971
132 1 1  0.000000 111.224030 33.100677 89.535988
133 1 1  0.000000 109.941666 32.682621 87.980568
134 1 1  0.000000 108.343651 32.050018 88.232254
135 1 1  0.000000 106.542221 31.259619 87.233994
136 1 1  0.000000 106.715904 29.846510 85.827667
137 1 1  0.000000 106.849258 30.627705 84.929955
138 1 1  0.000000 105.654884 30.866934 83.726418
139 1 1  0.000000 104.926132 32.032440 84.200546
140 1 1  0.000000 103.846481 33.479313 85.308784
141 1 1  0.000000 102.413986 33.667084 86.443947
142 1 1  0.000000 100.673363 34.070538 85.714890
143 1 1  0.000000 98.657501 34.162891 84.927132
144 1 1  0.000000 98.092361 33.068684 85.606392
145 1 1  0.000000 96.131020 32.808117 85.767746
146 1 1  0.000000 95.233673 33.419106 86.762955
147 1 1  0.000000 95.415909 34.035114 88.632408
148 1 1  0.000000 94.444901 34.260902 89.969299
149 1 1  0.000000 93.857597 32.477333 89.638832
150 1 1  0.000000 91.983421 33.025089 89.892204
151 1 1  0.000000 92.156609 32.880676 88.048759
152 1 1  0.000000 90.903984 34.164478 87.617874
153 1 1  0.000000 89.885292 35.170189 86.599480
154 1 1  0.000000 88.863266 34.787270 85.719040
155 1 1  0.000000 87.053688 35.228397 86.511475
156 1 1  0.000000 86.435745 36.173122 86.919754
157 1 1  0.000000 84.766319 36.237026 86.094490
158 1 1  0.000000 83.393188 36.259151 84.247086
159 1 1  0.000000 81.476753 36.476849 84.672462
160 1 1  0.000000 79.226624 37.904907 84.738144
161 1 1  0.000000 77.345917 37.972366 84.753357
162 1 1  0.000000 76.401878 38.955250 84.276199
163 1 1  0.000000 74.551758 40.173805 83.567780
164 1 1  0.000000 73.349792 40.773243 84.716957
165 1 1  0.000000 71.843094 41.699120 84.440346
166 1 1  0.000000 70.066330 41.507034 84.034309
167 1 1  0.000000 68.626236 41.208984 83.396507
168 1 1  0.000000 67.927963 41.860504 82.346489
169 1 1  0.000000 66.818695 42.836018 80.730492
170 1 1  0.000000 64.830460 42.999725 79.903740
171 1 1  0.000000 63.142467 42.382896 79.237877
172 1 1  0.000000 62.366722 43.292690 78.935738
173 1 1  0.000000 60.577900 42.895763 79.868843
174 1 1  0.000000 59.702991 42.509590 81.088287
175 1 1  0.000000 58.836716 41.292286 80.603661
176 1 1  0.000000 58.113987 41.730099 81.965683
177 1 1  0.000000 57.365593 41.711277 82.791542
178 1 1  0.000000 55.753609 43.063801 82.456024
179 1 1  0.000000 54.546505 42.552258 83.437698
180 1 1  0.000000 53.779282 41.120651 84.869408
181 1 1  0.000000 52.019348 41.862362 85.170868
182 1 1  0.000000 51.165279 41.359840 86.350876
183 1 1  0.000000 51.206310 42.537437 86.567421
184 1 1  0.000000 50.923889 42.302399 88.007484
185 1 1  0.000000 50.252342 40.617626 88.353348
186 1 1  0.000000 48.683594 39.532700 88.402885
187 1 1  0.000000 47.310635 39.879993 89.034424
188 1 1  0.000000 47.206036 38.562241 89.899063
189 1 1  0.000000 46.933113 39.791233 91.008270
190 1 1  0.000000 46.975784 40.653603 91.712608
191 1 1  0.000000 47.079529 39.438995 92.582794
192 1 1  0.000000 46.842209 38.567478 93.778778
193 1 1  0.000000 45.826721 37.572575 94.877014
194 1 1  0.000000 46.412189 35.959995 95.162949
195 1 1  0.000000 46.530769 37.042912 96.119713
196 1 1  0.000000 45.177380 37.143169 96.499535
197 1 1  0.000000 45.811905 35.949627 97.859543
198 1 1  0.000000 47.516949 35.017319 98.948128
199 1 1  0.000000 47.640316 36.767815 99.353928
200 1 1  0.000000 49.310341 36.677277 100.030640
201 2 1  0.000000 127.828796 57.535332 40.471691
202 2 1  0.000000 127.203232 56.527382 41.809845
203 2 1  0.000000 125.588493 56.515980 41.874439
204 2 1  0.000000 123.880905 55.409081 41.327351
205 2 1  0.000000 123.320274 55.804260 42.926529
206 2 1  0.000000 122.355705 55.309891 41.822659
207 2 1  0.000000 120.740677 55.914272 40.903469
208 2 1  0.000000 118.712189 55.565636 40.973476
209 2 1  0.000000 117.883575 54.522728 41.744938
210 2 1  0.000000 116.972725 56.028942 41.866875
211 2 1  0.000000 115.585854 56.812771 41.960415
212 2 1  0.000000 115.758362 57.107086 43.765903
213 2 1  0.000000 115.189919 58.207317 45.127357
214 2 1  0.000000 115.343132 56.930141 46.345375
215 2 1  0.000000 115.565704 56.317711 47.917664
216 2 1  0.000000 114.161842 55.922943 49.490955
217 2 1  0.000000 113.934898 55.106113 50.758060
218 2 1  0.000000 112.415543 55.838047 49.809662
219 2 1  0.000000 111.029701 54.665443 50.247505
220 2 1  0.000000 109.314339 55.185524 50.025032
221 2 1  0.000000 109.416275 53.503963 49.629734
222 2 1  0.000000 109.899323 52.000065 49.948833
223 2 1  0.000000 107.250542 51.778358 49.640377
224 2 1  0.000000 107.385628 53.054935 49.075680
225 2 1  0.000000 105.799156 52.712288 49.807854
226 2 1  0.000000 104.874542 52.024269 51.039299
227 2 1  0.000000 104.149445 53.811581 51.195889
228 2 1  0.000000 102.573631 53.979866 51.016140
229 2 1  0.000000 101.312828 53.396919 51.717495
230 2 1  0.000000 99.328217 53.952091 52.433125
231 2 1  0.000000 97.585510 53.338047 53.325127
232 2 1  0.000000 96.457375 53.824749 53.249809
233 2 1  0.000000 96.112442 53.987690 54.494808
234 2 1  0.000000 94.971977 54.871468 53.772861
235 2 1  0.000000 94.256577 56.257240 54.237545
236 2 1  0.000000 93.174553 55.907860 53.511658
237 2 1  0.000000 91.218765 56.729797 53.499954
238 2 1  0.000000 90.735016 57.633438 54.121807
239 2 1  0.000000 89.808739 56.097816 54.068890
240 2 1  0.000000 88.865585 56.763073 53.013046
241 2 1  0.000000 88.893166 57.941643 51.702637
242 2 1  0.000000 86.991150 57.253189 52.424763
243 2 1  0.000000 85.264931 57.138752 52.958977
244 2 1  0.000000 84.439415 56.637535 51.910931
245 2 1  0.000000 82.939629 57.142124 51.699432
246 2 1  0.000000 81.661774 57.137756 53.160881
247 2 1  0.000000 81.275047 55.561466 53.667633
248 2 1  0.000000 80.152710 56.061066 54.706379
249 2 1  0.000000 78.924332 55.068882 55.879444
250 2 1  0.000000 77.246254 55.301189 55.977325
251 2 1  0.000000 74.963402 55.375935 56.478672
252 2 1  0.000000 73.567307 55.847065 57.331535
253 2 1  0.000000 72.809288 56.646461 58.995308
254 2 1  0.000000 73.251167 57.398239 60.542011
255 2 1  0.000000 71.898788 56.868507 61.661064
256 2 1  0.000000 72.003769 56.480721 63.549217
257 2 1  0.000000 71.149651 55.854187 64.496223
258 2 1  0.000000 70.644501 55.088963 65.639160
259 2 1  0.000000 69.079529 56.274761 66.229378
260 2 1  0.000000 67.734932 57.230488 67.423325
261 2 1  0.000000 66.343323 58.567963 68.359947
262 2 1  0.000000 64.332626 58.442413 67.768860
263 2 1  0.000000 62.738403 59.285469 68.032280
264 2 1  0.000000 61.113468 60.176018 68.646667
265 2 1  0.000000 59.911964 60.610298 68.247742
266 2 1  0.000000 58.419178 60.942829 68.703156
267 2 1  0.000000 57.059635 61.548649 69.383293
268 2 1  0.000000 56.106606 62.142231 68.250237
269 2 1  0.000000 54.835949 61.130539 69.468620
270 2 1  0.000000 53.222141 61.658974 70.225647
271 2 1  0.000000 51.865211 63.048492 70.673828
272 2 1  0.000000 51.002979 64.271416 70.751976
273 2 1  0.000000 50.551487 65.661667 71.026169
274 2 1  0.000000 49.557888 66.735107 70.622543
275 2 1  0.000000 47.820301 66.906853 69.296501
276 2 1  0.000000 46.194504 67.092987 69.888580
277 2 1  0.000000 45.751270 67.808220 67.713051
278 2 1  0.000000 44.152279 68.664345 66.353767
279 2 1  0.000000 43.872322 68.221756 65.222534
280 2 1  0.000000 43.365479 67.695160 64.257744
281 2 1  0.000000 41.788174 66.876144 64.007484
282 2 1  0.000000 42.511711 65.567368 64.588287
283 2 1  0.000000 42.575081 65.144852 62.948311
284 2 1  0.000000 40.885983 64.611450 62.728592
285 2 1  0.000000 39.954529 63.459572 61.671158
286 2 1  0.000000 38.696327 62.331367 61.954124
287 2 1  0.000000 39.681416 63.214085 62.800224
288 2 1  0.000000 39.056442 61.916004 62.427532
289 2 1  0.000000 39.391819 60.468594 63.357277
290 2 1  0.000000 39.311584 59.689953 64.962135
291 2 1  0.000000 39.649616 59.176414 64.450821
292 2 1  0.000000 37.895142 58.904564 63.329296
293 2 1  0.000000 36.929703 57.971611 64.172722
294 2 1  0.000000 35.833405 59.276081 63.280338
295 2 1  0.000000 33.909172 60.413528 63.210182
296 2 1  0.000000 32.918644 61.231167 64.090805
297 2 1  0.000000 33.519211 62.391373 63.037464
298 2 1  0.000000 33.980007 62.965446 60.895805
299 2 1  0.000000 33.006813 63.988712 61.731247
300 2 1  0.000000 33.023239 64.511681 60.669918
301 3 1  0.000000 108.951851 65.172089 122.026680
302 3 1  0.000000 109.828575 64.119995 121.798019
303 3 1  0.000000 109.063293 62.963032 120.514915
304 3 1  0.000000 108.468231 64.206566 120.602470
305 3 1  0.000000 109.031555 63.270489 119.037659
306 3 1  0.000000 108.356918 63.162418 117.389946
307 3 1  0.000000 109.873055 63.150227 116.696548
308 3 1  0.000000 110.752937 63.826431 115.968887
309 3 1  0.000000 111.775597 64.584686 116.442558
310 3 1  0.000000 113.245361 64.199821 115.533699
311 3 1  0.000000 115.487709 64.664192 115.587944
312 3 1  0.000000 117.071686 63.678276 115.762772
313 3 1  0.000000 118.005226 64.141205 114.430199
314 3 1  0.000000 119.153076 64.525978 113.976883
315 3 1  0.000000 120.872047 65.481865 114.064316
316 3 1  0.000000 121.669846 64.234062 114.226425
317 3 1  0.000000 121.384003 63.900875 115.510201
318 3 1  0.000000 122.537262 62.291988 115.377792
319 3 1  0.000000 122.300957 62.086830 113.972847
320 3 1  0.000000 121.876785 61.448593 112.685707
321 3 1  0.000000 121.712730 59.657001 111.865921
322 3 1  0.000000 120.588776 59.517605 112.526260
323 3 1  0.000000 121.253616 58.613094 111.264801
324 3 1  0.000000 119.240501 58.401455 111.961685
325 3 1  0.000000 118.708435 59.555992 112.722092
326 3 1  0.000000 116.564842 58.069435 113.313148
327 3 1  0.000000 114.580780 58.259068 112.476135
328 3 1  0.000000 115.170311 58.149082 113.917572
329 3 1  0.000000 113.654114 57.474556 114.431587
330 3 1  0.000000 112.632996 56.823277 114.009972
331 3 1  0.000000 112.096771 57.880699 114.699387
332 3 1  0.000000 110.445778 58.542545 114.220413
333 3 1  0.000000 109.179291 57.943459 115.407280
334 3 1  0.000000 108.305519 58.543430 114.594963
335 3 1  0.000000 108.446922 59.589165 114.587730
336 3 1  0.000000 106.429825 58.940609 114.910072
337 3 1  0.000000 105.288017 58.649696 113.697838
338 3 1  0.000000 105.176323 60.887348 113.619827
339 3 1  0.000000 105.052376 62.199593 112.377678
340 3 1  0.000000 104.198059 62.879513 112.760010
341 3 1  0.000000 102.824615 63.326981 111.771477
342 3 1  0.000000 101.342781 62.792885 112.305641
343 3 1  0.000000 100.249794 61.089504 111.894653
344 3 1  0.000000 99.535789 60.231171 112.296883
345 3 1  0.000000 98.547302 58.522804 111.620438
346 3 1  0.000000 97.782303 60.447952 112.418190
347 3 1  0.000000 96.858681 59.385391 111.741547
348 3 1  0.000000 95.797859 58.470520 112.521988
349 3 1  0.000000 94.534073 58.916241 111.626549
350 3 1  0.000000 93.029121 59.273857 111.750031
351 3 1  0.000000 92.152573 57.989246 111.339790
352 3 1  0.000000 91.165352 56.985447 111.090736
353 3 1  0.000000 89.399590 58.167606 111.758789
354 3 1  0.000000 89.092369 56.331085 111.853577
355 3 1  0.000000 87.836960 55.795986 111.074211
356 3 1  0.000000 85.970795 56.582138 110.953125
357 3 1  0.000000 84.515450 55.725094 110.224083
358 3 1  0.000000 83.719048 56.193466 108.881081
359 3 1  0.000000 83.264999 57.412544 108.891815
360 3 1  0.000000 82.799644 57.470909 107.422279
361 3 1  0.000000 81.946686 57.795143 106.374931
362 3 1  0.000000 82.321472 59.579990 106.111763
363 3 1  0.000000 80.828072 58.993626 105.775368
364 3 1  0.000000 79.510529 59.742489 104.685699
365 3 1  0.000000 77.966049 60.205349 104.140030
366 3 1  0.000000 78.364960 60.684021 102.809883
367 3 1  0.000000 78.359268 59.755333 101.748756
368 3 1  0.000000 78.118896 59.514580 100.673340
369 3 1  0.000000 78.929947 60.372295 99.569633
370 3 1  0.000000 79.386917 62.892391 99.626564
371 3 1  0.000000 78.854301 63.091507 98.077499
372 3 1  0.000000 78.190865 62.402374 97.253830
373 3 1  0.000000 77.181419 61.379204 96.468063
374 3 1  0.000000 75.721039 62.601093 96.225700
375 3 1  0.000000 75.954475 62.596283 94.661476
376 3 1  0.000000 76.161453 64.202408 94.645592
377 3 1  0.000000 76.461662 65.814766 94.832138
378 3 1  0.000000 76.801781 65.854240 93.194427
379 3 1  0.000000 76.257462 66.821434 93.515938
380 3 1  0.000000 75.241524 67.836121 94.458679
381 3 1  0.000000 73.836494 67.165146 94.938957
382 3 1  0.000000 72.728653 67.973305 96.003319
383 3 1  0.000000 71.534561 68.171654 95.105873
384 3 1  0.000000 71.049728 67.267273 93.387627
385 3 1  0.000000 71.787979 66.715881 92.486099
386 3 1  0.000000 71.753044 68.067749 92.309631
387 3 1  0.000000 70.298569 68.466995 91.633858
388 3 1  0.000000 69.407471 69.575104 90.489792
389 3 1  0.000000 69.075180 69.643349 88.685699
390 3 1  0.000000 68.497887 70.302032 86.633492
391 3 1  0.000000 68.281815 70.416344 87.749474
392 3 1  0.000000 69.707970 70.920189 86.765457
393 3 1  0.000000 69.458260 71.985046 86.035980
394 3 1  0.000000 70.644020 72.550644 85.221313
395 3 1  0.000000 71.203613 73.215561 83.659012
396 3 1  0.000000 72.207352 71.760017 83.443222
397 3 1  0.000000 71.280151 70.708885 82.016953
398 3 1  0.000000 70.948067 69.302528 81.638435
399 3 1  0.000000 72.416222 69.724152 82.677162
400 3 1  0.000000 73.851715 69.113594 82.073700
401 4 1  0.000000 98.140030 69.684341 62.351025
402 4 1  0.000000 99.058067 70.255966 62.080814
403 4 1  0.000000 99.196030 69.133011 61.207531
404 4 1  0.000000 99.003433 68.798065 60.018276
405 4 1  0.000000 99.092415 68.948669 58.105431
406 4 1  0.000000 100.330261 68.628838 58.607635
407 4 1  0.000000 99.956734 68.865845 56.982620
408 4 1  0.000000 101.400513 69.799889 56.175972
409 4 1  0.000000 101.774170 67.773643 56.369080
410 4 1  0.000000 100.708397 66.108147 56.729870
411 4 1  0.000000 99.999840 66.099487 55.040531
412 4 1  0.000000 100.722404 66.308517 53.971260
413 4 1  0.000000 101.006119 65.637604 52.534870
414 4 1  0.000000 101.032280 64.002510 52.082012
415 4 1  0.000000 101.613792 62.173531 52.048546
416 4 1  0.000000 100.587845 62.623947 53.385551
417 4 1  0.000000 99.723419 61.737732 53.795692
418 4 1  0.000000 98.390450 61.117817 53.391987
419 4 1  0.000000 97.472771 61.115337 53.773994
420 4 1  0.000000 98.297180 60.651527 55.689682
421 4 1  0.000000 98.387863 61.316738 57.194702
422 4 1  0.000000 97.524254 61.484547 58.572960
423 4 1  0.000000 96.095406 61.772907 58.920025
424 4 1  0.000000 95.802521 62.316395 57.551899
425 4 1  0.000000 94.856773 63.051098 57.419621
426 4 1  0.000000 93.871407 62.595379 56.359280
427 4 1  0.000000 92.682526 61.649723 56.166302
428 4 1  0.000000 92.112106 60.773357 54.945679
429 4 1  0.000000 90.693108 61.431297 54.682934
430 4 1  0.000000 89.428276 61.177414 54.847305
431 4 1  0.000000 88.909637 61.583313 53.915695
432 4 1  0.000000 87.954330 61.904785 55.141701
433 4 1  0.000000 86.665627 61.491138 54.689331
434 4 1  0.000000 85.652084 62.772408 55.023624
435 4 1  0.000000 85.854942 64.244675 53.879551
436 4 1  0.000000 84.700027 64.746605 52.656094
437 4 1  0.000000 86.312622 64.271706 51.550323
438 4 1  0.000000 85.833580 65.698074 50.641136
439 4 1  0.000000 85.411163 65.318108 49.416241
440 4 1  0.000000 84.103172 65.983276 49.248947
441 4 1  0.000000 82.793121 66.353851 49.150146
442 4 1  0.000000 81.281273 65.478592 49.298801
443 4 1  0.000000 78.913887 64.155426 48.791401
444 4 1  0.000000 77.939354 63.147629 49.126450
445 4 1  0.000000 77.280144 62.839146 47.376038
446 4 1  0.000000 76.499992 63.446358 49.099571
447 4 1  0.000000 74.854256 63.092518 49.488789
448 4 1  0.000000 73.896919 62.435047 48.536282
449 4 1  0.000000 72.694466 61.764961 47.632961
450 4 1  0.000000 73.814621 61.217625 47.049393
451 4 1  0.000000 72.113297 60.805737 47.272205
452 4 1  0.000000 70.079933 60.257294 47.725708
453 4 1  0.000000 68.520889 60.666733 47.546257
454 4 1  0.000000 68.626343 61.638355 48.785019
455 4 1  0.000000 66.716362 61.907024 48.648659
456 4 1  0.000000 65.107544 61.175838 49.464844
457 4 1  0.000000 63.678448 61.321140 49.269852
458 4 1  0.000000 62.713642 59.965477 48.003952
459 4 1  0.000000 61.101982 60.195663 48.867558
460 4 1  0.000000 59.148613 59.987541 48.234383
461 4 1  0.000000 59.480663 58.302303 47.748196
462 4 1  0.000000 59.172798 58.787846 46.872723
463 4 1  0.000000 57.996464 60.436592 46.861160
464 4 1  0.000000 56.351444 61.704308 46.190613
465 4 1  0.000000 55.131325 61.462486 46.565151
466 4 1  0.000000 54.026176 59.994556 46.378910
467 4 1  0.000000 52.382549 59.232502 46.665489
468 4 1  0.000000 51.092350 58.729469 46.400154
469 4 1  0.000000 49.925415 57.817616 46.487591
470 4 1  0.000000 48.947823 56.573402 45.350170
471 4 1  0.000000 48.200272 57.779259 44.816216
472 4 1  0.000000 47.310455 58.104305 44.110390
473 4 1  0.000000 45.427036 59.672436 44.020580
474 4 1  0.000000 44.915768 61.093681 44.982449
475 4 1  0.000000 46.332920 61.676861 45.365555
476 4 1  0.000000 45.735435 62.806053 44.324120
477 4 1  0.000000 45.521225 63.100052 45.845627
478 4 1  0.000000 45.522549 65.171181 45.835850
479 4 1  0.000000 45.119061 66.817032 46.262749
480 4 1  0.000000 44.508190 66.287849 44.949482
481 4 1  0.000000 43.470192 67.237656 45.889053
482 4 1  0.000000 42.005779 66.170853 46.196964
483 4 1  0.000000 41.168995 67.329056 47.141079
484 4 1  0.000000 40.435677 67.610870 46.072769
485 4 1  0.000000 38.651348 67.036278 46.329025
486 4 1  0.000000 37.395321 67.489441 44.973743
487 4 1  0.000000 37.424152 66.419563 45.736698
488 4 1  0.000000 36.387363 66.177826 47.401096
489 4 1  0.000000 35.744507 65.007362 48.316250
490 4 1  0.000000 36.363976 64.529816 46.703995
491 4 1  0.000000 35.362377 63.257225 45.566261
492 4 1  0.000000 35.122887 62.163223 45.818081
493 4 1  0.000000 36.202229 61.676582 45.976730
494 4 1  0.000000 35.962608 60.281189 46.946144
495 4 1  0.000000 35.281162 59.668434 48.366016
496 4 1  0.000000 34.857597 59.207642 47.080666
497 4 1  0.000000 33.318241 58.738369 47.354401
498 4 1  0.000000 33.236732 57.489506 49.127327
499 4 1  0.000000 32.101162 58.707336 49.794678
500 4 1  0.000000 32.774700 60.205853 50.674717
501 5 1  0.000000 127.274513 83.655090 67.472176
502 5 1  0.000000 127.375717 82.676178 67.067261
503 5 1  0.000000 126.095650 83.875938 66.220436
504 5 1  0.000000 124.158981 83.472855 66.457642
505 5 1  0.000000 124.187103 81.850212 66.642410
506 5 1  0.000000 123.314583 80.584854 66.548363
507 5 1  0.000000 121.884941 79.190872 66.754486
508 5 1  0.000000 120.919258 80.653824 67.352486
509 5 1  0.000000 119.350990 79.954430 68.218018
510 5 1  0.000000 118.139893 79.855034 68.986801
511 5 1  0.000000 116.137260 79.680237 69.349617
512 5 1  0.000000 114.396126 79.887146 69.984108
513 5 1  0.000000 113.355797 78.800003 70.927299
514 5 1  0.000000 112.238113 79.506012 70.990852
515 5 1  0.000000 111.025330 79.826775 72.052765
516 5 1  0.000000 109.543610 80.198135 72.808731
517 5 1  0.000000 108.262993 81.076111 72.435120
518 5 1  0.000000 106.755539 81.709030 71.926247
519 5 1  0.000000 106.451668 83.577209 72.510750
520 5 1  0.000000 107.013847 85.130661 72.369537
521 5 1  0.000000 105.068939 83.624031 71.834953
522 5 1  0.000000 103.902206 82.914246 73.017860
523 5 1  0.000000 102.303947 82.248116 73.154388
524 5 1  0.000000 101.063538 83.408112 72.476410
525 5 1  0.000000 100.726120 85.110176 72.714912
526 5 1  0.000000 100.591072 83.967888 74.049927
527 5 1  0.000000 98.646400 84.166656 74.887917
528 5 1  0.000000 97.615891 85.304276 75.771622
529 5 1  0.000000 96.924805 86.523308 75.946335
530 5 1  0.000000 95.905670 87.737228 76.431763
531 5 1  0.000000 95.177582 88.467964 78.190727
532 5 1  0.000000 92.956276 87.619621 79.760490
533 5 1  0.000000 91.852119 88.868073 80.213905
534 5 1  0.000000 90.298866 88.621056 80.868492
535 5 1  0.000000 89.360710 89.430244 80.372375
536 5 1  0.000000 87.431458 90.209908 81.025703
537 5 1  0.000000 86.349503 91.307541 81.859406
538 5 1  0.000000 84.576195 90.478951 81.746895
539 5 1  0.000000 82.934959 89.519188 82.357422
540 5 1  0.000000 81.644615 90.551659 82.621857
541 5 1  0.000000 80.060112 90.390480 82.076248
542 5 1  0.000000 79.063553 91.786224 82.314308
543 5 1  0.000000 77.442497 92.031921 81.417366
544 5 1  0.000000 75.788277 91.318909 80.942535
545 5 1  0.000000 74.232719 91.934021 81.533279
546 5 1  0.000000 73.056725 92.066223 81.806908
547 5 1  0.000000 71.457832 91.412582 81.069611
548 5 1  0.000000 69.865837 91.219131 81.520889
549 5 1  0.000000 68.509705 90.791893 83.107178
550 5 1  0.000000 67.013252 89.497803 82.578613
551 5 1  0.000000 65.527153 89.121078 82.445145
552 5 1  0.000000 64.774139 90.423721 82.414703
553 5 1  0.000000 63.439526 91.396873 83.047569
554 5 1  0.000000 62.739750 91.973404 82.287796
555 5 1  0.000000 61.988274 91.089516 83.919685
556 5 1  0.000000 60.684906 92.438446 84.756264
557 5 1  0.000000 59.589912 91.616562 85.534798
558 5 1  0.000000 59.675926 90.064491 85.584946
559 5 1  0.000000 58.624294 90.211815 86.314842
560 5 1  0.000000 56.938595 89.881477 87.401978
561 5 1  0.000000 55.184746 90.199646 88.223808
562 5 1  0.000000 53.572708 90.531441 88.796059
563 5 1  0.000000 51.858677 90.466255 88.434128
564 5 1  0.000000 51.161926 89.328773 88.848793
565 5 1  0.000000 50.268169 90.448845 90.258064
566 5 1  0.000000 49.058411 90.041908 91.668396
567 5 1  0.000000 49.109711 89.213333 92.794052
568 5 1  0.000000 47.254433 90.350151 93.343880
569 5 1  0.000000 45.387619 89.986259 93.189056
570 5 1  0.000000 43.381874 90.111481 93.250130
571 5 1  0.000000 41.449440 90.318542 93.501198
572 5 1  0.000000 40.771790 90.676620 92.049561
573 5 1  0.000000 39.730656 91.154221 92.552406
574 5 1  0.000000 37.927437 91.457382 93.435684
575 5 1  0.000000 36.468651 91.172340 92.873886
576 5 1  0.000000 34.852962 91.758026 92.204155
577 5 1  0.000000 33.699512 91.798744 93.394829
578 5 1  0.000000 32.792263 90.808968 93.395111
579 5 1  0.000000 31.836470 92.261246 93.536598
580 5 1  0.000000 30.898088 91.392921 91.970963
581 5 1  0.000000 30.421101 93.275475 92.981239
582 5 1  0.000000 28.583374 93.112244 91.904510
583 5 1  0.000000 27.593063 92.221558 91.480042
584 5 1  0.000000 27.677656 90.980499 90.865356
585 5 1  0.000000 28.285782 89.337929 90.447762
586 5 1  0.000000 27.255533 90.267761 89.249695
587 5 1  0.000000 25.322514 89.817612 89.567589
588 5 1  0.000000 24.996555 88.710533 88.739677
589 5 1  0.000000 24.205254 87.430931 88.690773
590 5 1  0.000000 22.543493 87.991219 88.082489
591 5 1  0.000000 22.113884 86.419624 87.481529
592 5 1  0.000000 20.323730 86.267876 87.362419
593 5 1  0.000000 21.489849 84.718292 88.208260
594 5 1  0.000000 21.472952 84.502426 86.488266
595 5 1  0.000000 21.123020 82.655891 85.976929
596 5 1  0.000000 21.663279 81.315582 85.982124
597 5 1  0.000000 22.122530 80.249359 84.525452
598 5 1  0.000000 23.309099 80.036362 86.037842
599 5 1  0.000000 23.201914 79.488708 87.753105
600 5 1  0.000000 24.305740 78.801514 87.847717
601 6 1  0.000000 96.185089 93.265678 69.745003
602 6 1  0.000000 97.331734 92.778870 70.846977
603 6 1  0.000000 97.356049 94.617836 69.820862
604 6 1  0.000000 97.004089 95.680542 70.399277
605 6 1  0.000000 97.625725 97.207787 70.341309
606 6 1  0.000000 97.609734 98.245903 68.557533
607 6 1  0.000000 96.482597 98.912285 68.447456
608 6 1  0.000000 97.366516 100.570244 68.167793
609 6 1  0.000000 96.411903 99.320885 68.186348
610 6 1  0.000000 95.194221 99.425873 67.294510
611 6 1  0.000000 95.607094 100.630814 65.300652
612 6 1  0.000000 97.232254 101.146126 64.674179