Created with TaichiMD

1000 atoms
990 bonds
  0 angles
  0 dihedrals
  0 impropers

1 atom types
1 bond types
0 angle types
0 dihedral types
0 improper types

-80.00000  80.00000 xlo xhi
-80.00000  80.00000 ylo yhi
-80.00000  80.00000 zlo zhi

Masses

1 10.0000

Atoms

  1 0 1  0.000000 53.119324  4.813581 88.850464
  2 0 1  0.000000 51.975250  4.638114 89.379501
  3 0 1  0.000000 50.934376  5.282944 89.332916
  4 0 1  0.000000 51.164234  6.657331 90.051674
  5 0 1  0.000000 51.968899  8.118420 91.543831
  6 0 1  0.000000 51.648006  8.967124 89.713120
  7 0 1  0.000000 50.666889  9.380422 88.669075
  8 0 1  0.000000 50.846539 10.330666 87.452385
  9 0 1  0.000000 51.746277 10.845732 86.886879
 10 0 1  0.000000 52.029659 11.055147 85.697632
 11 0 1  0.000000 53.446644 11.781372 85.150681
 12 0 1  0.000000 55.060673 11.501915 84.911583
 13 0 1  0.000000 55.595947 11.810846 86.744370
 14 0 1  0.000000 55.715954 13.044129 86.078606
 15 0 1  0.000000 57.225342 12.255352 85.961212
 16 0 1  0.000000 57.614273 10.618252 86.411194
 17 0 1  0.000000 58.801918 11.476668 86.764641
 18 0 1  0.000000 59.253075 12.787637 85.665260
 19 0 1  0.000000 60.627167 12.147072 85.668991
 20 0 1  0.000000 60.646973 13.680449 86.902069
 21 0 1  0.000000 61.372574 15.760219 86.962616
 22 0 1  0.000000 62.332916 15.942883 85.298721
 23 0 1  0.000000 64.295845 15.578023 85.230927
 24 0 1  0.000000 63.810555 16.931904 84.596191
 25 0 1  0.000000 65.608360 16.385538 83.901482
 26 0 1  0.000000 66.537567 16.851252 84.495544
 27 0 1  0.000000 67.751976 17.781378 85.608894
 28 0 1  0.000000 68.773140 18.607416 86.169502
 29 0 1  0.000000 69.229385 19.677519 85.005264
 30 0 1  0.000000 70.177559 20.035219 83.702736
 31 0 1  0.000000 71.132210 19.090267 82.898369
 32 0 1  0.000000 72.030319 17.676796 83.408752
 33 0 1  0.000000 73.477890 17.823008 84.214615
 34 0 1  0.000000 73.689812 19.631208 84.040718
 35 0 1  0.000000 73.611778 19.392849 85.458237
 36 0 1  0.000000 72.539673 19.273710 86.569756
 37 0 1  0.000000 73.968071 19.693327 87.146828
 38 0 1  0.000000 75.339027 19.309317 88.052353
 39 0 1  0.000000 76.164856 20.139631 87.876945
 40 0 1  0.000000 76.410294 18.962915 87.621162
 41 0 1  0.000000 77.845154 17.877794 86.872688
 42 0 1  0.000000 79.206314 18.560478 87.382729
 43 0 1  0.000000 78.366394 17.987259 86.173698
 44 0 1  0.000000 79.648209 19.043829 86.558815
 45 0 1  0.000000 80.940895 20.314529 86.594856
 46 0 1  0.000000 81.456947 20.767878 85.429100
 47 0 1  0.000000 79.659912 21.394405 85.194847
 48 0 1  0.000000 79.657585 22.490473 84.244713
 49 0 1  0.000000 80.389999 22.807333 83.087914
 50 0 1  0.000000 81.174904 24.459625 83.070473
 51 0 1  0.000000 81.099258 23.937862 81.654312
 52 0 1  0.000000 81.537628 23.436066 79.853119
 53 0 1  0.000000 83.323997 23.017826 80.092262
 54 0 1  0.000000 83.943138 23.585943 81.265541
 55 0 1  0.000000 85.708290 23.592518 82.021675
 56 0 1  0.000000 87.492584 23.891727 81.433418
 57 0 1  0.000000 86.737732 23.996065 82.928169
 58 0 1  0.000000 86.098419 23.505213 84.732208
 59 0 1  0.000000 85.811134 21.747240 85.376518
 60 0 1  0.000000 86.471397 20.347683 86.730789
 61 0 1  0.000000 88.199951 19.618849 86.377434
 62 0 1  0.000000 88.819969 19.280613 84.983070
 63 0 1  0.000000 89.142693 17.914001 83.386009
 64 0 1  0.000000 88.931480 16.467600 83.896339
 65 0 1  0.000000 90.332802 15.666410 84.343513
 66 0 1  0.000000 91.203529 16.782164 85.564201
 67 0 1  0.000000 92.106064 17.350384 87.307709
 68 0 1  0.000000 91.279175 16.826588 88.325310
 69 0 1  0.000000 91.098900 18.063242 89.115005
 70 0 1  0.000000 91.517853 19.228329 89.051025
 71 0 1  0.000000 92.209412 20.051033 90.726692
 72 0 1  0.000000 92.658035 20.092693 89.405472
 73 0 1  0.000000 93.253807 21.260710 90.447319
 74 0 1  0.000000 94.595085 21.755198 91.005577
 75 0 1  0.000000 95.057785 23.185455 89.869423
 76 0 1  0.000000 94.846603 23.704742 91.629997
 77 0 1  0.000000 94.328529 24.300060 92.622086
 78 0 1  0.000000 94.877510 24.322102 93.833908
 79 0 1  0.000000 95.446312 25.045332 95.089798
 80 0 1  0.000000 96.572464 26.332960 96.004211
 81 0 1  0.000000 97.120895 24.759186 96.129112
 82 0 1  0.000000 98.188499 24.554201 95.813362
 83 0 1  0.000000 99.846413 24.342539 96.390289
 84 0 1  0.000000 100.639626 23.690771 94.981102
 85 0 1  0.000000 100.837967 25.144533 94.684494
 86 0 1  0.000000 101.848434 25.441477 93.484116
 87 0 1  0.000000 100.730850 24.999023 92.357162
 88 0 1  0.000000 101.949699 25.396130 92.245857
 89 0 1  0.000000 102.857529 24.072357 92.406601
 90 0 1  0.000000 104.776932 24.324028 91.899078
 91 0 1  0.000000 105.822205 22.905144 92.447853
 92 0 1  0.000000 106.483498 21.376829 93.475380
 93 0 1  0.000000 108.123657 22.411798 94.345573
 94 0 1  0.000000 109.738800 22.536165 94.431297
 95 0 1  0.000000 110.564423 22.720333 95.856087
 96 0 1  0.000000 111.730103 22.654957 95.040527
 97 0 1  0.000000 112.407845 24.156107 94.807037
 98 0 1  0.000000 112.777306 25.717566 94.499992
 99 0 1  0.000000 113.190315 26.650803 95.539627
100 0 1  0.000000 113.653625 28.448057 95.772156
101 1 1  0.000000 58.239967 33.673801 85.858383
102 1 1  0.000000 59.491631 33.242565 84.781723
103 1 1  0.000000 61.002060 33.228119 85.923492
104 1 1  0.000000 62.158520 32.478268 87.395157
105 1 1  0.000000 61.730736 31.721064 87.107117
106 1 1  0.000000 61.111721 30.565817 88.399300
107 1 1  0.000000 61.162331 32.043545 90.025581
108 1 1  0.000000 60.936378 31.336008 91.143806
109 1 1  0.000000 60.890263 33.074127 90.198311
110 1 1  0.000000 61.191280 34.414978 91.291801
111 1 1  0.000000 61.953362 35.968773 90.920181
112 1 1  0.000000 63.299267 36.161701 91.779961
113 1 1  0.000000 64.534943 35.253700 92.714561
114 1 1  0.000000 64.576408 34.302517 91.786606
115 1 1  0.000000 65.474159 33.397026 92.107010
116 1 1  0.000000 65.760994 32.068977 91.494102
117 1 1  0.000000 67.110504 32.140862 90.235558
118 1 1  0.000000 68.568504 31.761709 91.014351
119 1 1  0.000000 68.571213 32.650810 90.269577
120 1 1  0.000000 70.111847 32.351566 89.701523
121 1 1  0.000000 70.799675 32.419415 88.247055
122 1 1  0.000000 72.066261 31.219561 87.644485
123 1 1  0.000000 71.552383 31.722603 86.243927
124 1 1  0.000000 71.934647 31.008432 84.758293
125 1 1  0.000000 71.788231 32.025223 83.938873
126 1 1  0.000000 72.780014 33.126637 83.499420
127 1 1  0.000000 73.369377 34.034416 82.514091
128 1 1  0.000000 73.254227 34.138035 80.940506
129 1 1  0.000000 74.824913 34.697514 80.684456
130 1 1  0.000000 75.667183 33.346996 80.114540
131 1 1  0.000000 75.310341 31.527868 79.195602
132 1 1  0.000000 76.084785 31.624166 80.147400
133 1 1  0.000000 76.659904 30.439312 79.751572
134 1 1  0.000000 77.638840 29.717918 80.852318
135 1 1  0.000000 77.915901 31.389421 81.410088
136 1 1  0.000000 79.569397 32.196602 80.755653
137 1 1  0.000000 79.853333 31.842285 82.190247
138 1 1  0.000000 81.178940 32.203907 81.580269
139 1 1  0.000000 80.860321 32.305927 83.512299
140 1 1  0.000000 82.242470 33.423512 83.512688
141 1 1  0.000000 81.487419 35.505390 83.248970
142 1 1  0.000000 81.139816 36.469963 83.810333
143 1 1  0.000000 82.426453 36.797001 85.252136
144 1 1  0.000000 83.413521 36.907887 86.334579
145 1 1  0.000000 84.709213 35.737503 86.362526
146 1 1  0.000000 85.949158 36.112984 87.632484
147 1 1  0.000000 84.695831 37.130966 88.468170
148 1 1  0.000000 84.278870 38.740891 89.348366
149 1 1  0.000000 85.884613 39.146988 89.569496
150 1 1  0.000000 85.183762 40.168339 88.456947
151 1 1  0.000000 85.792709 40.063629 87.197716
152 1 1  0.000000 86.912506 40.084465 86.421112
153 1 1  0.000000 86.999741 39.383011 85.207100
154 1 1  0.000000 85.911186 40.503086 85.066391
155 1 1  0.000000 86.370430 39.987198 83.635498
156 1 1  0.000000 84.490776 39.261124 82.750443
157 1 1  0.000000 84.125641 39.851856 81.433243
158 1 1  0.000000 84.932121 41.015789 80.466293
159 1 1  0.000000 83.923157 40.321396 78.974968
160 1 1  0.000000 85.403717 41.005737 79.128563
161 1 1  0.000000 86.552017 41.468323 79.148247
162 1 1  0.000000 88.642555 41.211033 79.294472
163 1 1  0.000000 89.842628 41.138145 79.229530
164 1 1  0.000000 89.753181 40.428265 78.042717
165 1 1  0.000000 90.996071 40.630516 78.006264
166 1 1  0.000000 91.306007 42.289478 77.405571
167 1 1  0.000000 92.108131 42.702789 76.486717
168 1 1  0.000000 93.066422 41.755192 76.186890
169 1 1  0.000000 94.775917 41.766510 75.843910
170 1 1  0.000000 94.393127 40.616661 76.798988
171 1 1  0.000000 94.096153 40.587040 78.062943
172 1 1  0.000000 94.905777 40.584435 79.311714
173 1 1  0.000000 96.025330 40.907299 80.032211
174 1 1  0.000000 96.689522 39.753113 80.729576
175 1 1  0.000000 96.925827 38.048725 80.602341
176 1 1  0.000000 97.145897 37.766407 79.334442
177 1 1  0.000000 98.700066 38.272961 79.780434
178 1 1  0.000000 99.849243 37.386604 79.830353
179 1 1  0.000000 99.243919 37.306332 78.422646
180 1 1  0.000000 100.461121 36.488327 77.699905
181 1 1  0.000000 101.275284 35.857609 76.666702
182 1 1  0.000000 102.847160 35.904881 76.534592
183 1 1  0.000000 104.354042 35.183216 75.959755
184 1 1  0.000000 104.646103 36.897266 75.151176
185 1 1  0.000000 103.608589 38.550766 74.685707
186 1 1  0.000000 104.535789 39.524151 73.988388
187 1 1  0.000000 105.540115 39.553978 74.072426
188 1 1  0.000000 106.308044 39.204136 72.370712
189 1 1  0.000000 107.730347 39.345634 73.491264
190 1 1  0.000000 107.900848 38.428249 75.119713
191 1 1  0.000000 109.200996 38.053181 75.677574
192 1 1  0.000000 110.949379 38.745365 76.246246
193 1 1  0.000000 110.908302 39.772900 77.275887
194 1 1  0.000000 110.954056 41.315086 76.927795
195 1 1  0.000000 112.392853 40.580189 76.260521
196 1 1  0.000000 111.308151 41.918930 75.066750
197 1 1  0.000000 110.889130 43.372910 74.993866
198 1 1  0.000000 112.263893 45.174149 75.290291
199 1 1  0.000000 111.898361 46.132423 76.248062
200 1 1  0.000000 112.535820 45.751183 74.584320
201 2 1  0.000000 43.894375 55.127518 61.507465
202 2 1  0.000000 44.653130 55.614288 60.689106
203 2 1  0.000000 44.060726 54.637371 61.628963
204 2 1  0.000000 45.660057 54.186611 62.819622
205 2 1  0.000000 45.082226 52.600201 63.439121
206 2 1  0.000000 44.198917 53.467850 64.380859
207 2 1  0.000000 44.480316 53.483490 65.906731
208 2 1  0.000000 44.203663 52.181633 66.872032
209 2 1  0.000000 45.680897 52.828926 66.621536
210 2 1  0.000000 46.880928 51.871857 67.462952
211 2 1  0.000000 48.058769 52.338940 68.114952
212 2 1  0.000000 48.855965 52.702881 66.943420
213 2 1  0.000000 48.801388 52.316376 68.500648
214 2 1  0.000000 50.534950 53.083050 69.760124
215 2 1  0.000000 49.722862 51.790894 70.857841
216 2 1  0.000000 51.454868 51.374729 70.904922
217 2 1  0.000000 52.844078 52.205372 71.324966
218 2 1  0.000000 54.041809 51.260105 70.375328
219 2 1  0.000000 54.217281 49.726910 70.260941
220 2 1  0.000000 55.054531 49.083084 69.081459
221 2 1  0.000000 55.576492 50.444759 69.012581
222 2 1  0.000000 56.637539 49.612804 67.523468
223 2 1  0.000000 57.110462 50.135521 65.869583
224 2 1  0.000000 58.362999 51.206959 64.501625
225 2 1  0.000000 58.761433 49.854282 64.874077
226 2 1  0.000000 60.930866 48.803246 64.893295
227 2 1  0.000000 62.176334 48.707058 65.108154
228 2 1  0.000000 61.994797 47.096966 64.990196
229 2 1  0.000000 61.972614 46.947330 66.498482
230 2 1  0.000000 62.570293 46.205746 68.551888
231 2 1  0.000000 63.792469 47.285309 67.951172
232 2 1  0.000000 64.855270 47.224892 69.282356
233 2 1  0.000000 66.079018 47.716034 68.206650
234 2 1  0.000000 66.924957 48.388908 69.314827
235 2 1  0.000000 67.419388 50.048965 69.731873
236 2 1  0.000000 67.922386 49.955475 68.217354
237 2 1  0.000000 69.529160 50.024132 67.848030
238 2 1  0.000000 71.296684 49.700012 67.065689
239 2 1  0.000000 71.359795 50.437340 65.821960
240 2 1  0.000000 71.200119 51.771667 66.459602
241 2 1  0.000000 71.980576 52.834393 67.638428
242 2 1  0.000000 71.980049 53.405701 69.275986
243 2 1  0.000000 71.234665 52.662239 70.146400
244 2 1  0.000000 71.093193 51.298904 70.925987
245 2 1  0.000000 72.008553 51.760704 72.269897
246 2 1  0.000000 72.809364 50.875763 73.264671
247 2 1  0.000000 74.453766 51.451366 72.966713
248 2 1  0.000000 75.764809 51.825893 73.465515
249 2 1  0.000000 75.273003 50.209946 73.024376
250 2 1  0.000000 75.949295 49.905533 71.733437
251 2 1  0.000000 76.897652 49.465839 70.337418
252 2 1  0.000000 77.091011 47.658607 70.628098
253 2 1  0.000000 77.519569 49.570427 70.543694
254 2 1  0.000000 78.905136 48.824635 69.827171
255 2 1  0.000000 80.021172 47.964619 69.302200
256 2 1  0.000000 80.155426 46.511169 70.113838
257 2 1  0.000000 81.758736 46.181931 70.853821
258 2 1  0.000000 82.009483 44.464813 71.418571
259 2 1  0.000000 83.664688 44.378971 71.739380
260 2 1  0.000000 82.784355 43.548443 72.315720
261 2 1  0.000000 83.040672 43.910770 73.833702
262 2 1  0.000000 82.928673 44.918549 75.156998
263 2 1  0.000000 84.081345 44.857883 76.199379
264 2 1  0.000000 83.605698 45.424019 77.384979
265 2 1  0.000000 85.188637 46.417828 77.608643
266 2 1  0.000000 86.750572 46.287766 77.462311
267 2 1  0.000000 87.200012 45.105881 77.608307
268 2 1  0.000000 88.627434 45.438656 78.266182
269 2 1  0.000000 88.629539 46.499882 77.589371
270 2 1  0.000000 89.404091 47.199406 78.901474
271 2 1  0.000000 89.995911 47.144848 80.248878
272 2 1  0.000000 90.988213 48.186932 79.022285
273 2 1  0.000000 92.383736 47.499996 78.141289
274 2 1  0.000000 92.704338 47.450169 79.303833
275 2 1  0.000000 93.036423 45.871098 79.554092
276 2 1  0.000000 94.643631 45.204327 78.793030
277 2 1  0.000000 96.507248 46.067238 78.160820
278 2 1  0.000000 97.635971 44.625362 77.982285
279 2 1  0.000000 98.286797 44.457256 79.083237
280 2 1  0.000000 99.528160 43.360409 79.683937
281 2 1  0.000000 100.765526 42.842373 81.080353
282 2 1  0.000000 101.530602 42.286758 82.357254
283 2 1  0.000000 102.236710 42.584171 84.245461
284 2 1  0.000000 102.826653 44.532326 84.639191
285 2 1  0.000000 103.368370 45.834282 83.274994
286 2 1  0.000000 102.686180 46.676086 84.418648
287 2 1  0.000000 103.442650 46.112217 85.363594
288 2 1  0.000000 105.310165 46.785580 85.064240
289 2 1  0.000000 107.236137 45.570694 85.114075
290 2 1  0.000000 106.668083 45.121513 86.380135
291 2 1  0.000000 107.973618 45.560829 85.979065
292 2 1  0.000000 108.733658 46.704380 87.131653
293 2 1  0.000000 110.183846 46.004353 87.183495
294 2 1  0.000000 109.350510 47.159966 87.524033
295 2 1  0.000000 110.242134 45.871849 88.656784
296 2 1  0.000000 110.800636 44.757000 89.360260
297 2 1  0.000000 110.036896 45.167885 90.732895
298 2 1  0.000000 109.413780 45.759636 91.641197
299 2 1  0.000000 108.237732 45.516727 92.415466
300 2 1  0.000000 108.581299 44.469536 94.008865
301 3 1  0.000000 64.004517 62.539238 99.686295
302 3 1  0.000000 62.899536 61.241108 100.358536
303 3 1  0.000000 61.537029 61.643208 99.972725
304 3 1  0.000000 60.350368 61.539730 98.914032
305 3 1  0.000000 60.117611 59.169037 99.317772
306 3 1  0.000000 59.828152 60.840771 98.362381
307 3 1  0.000000 58.832195 60.331661 97.286522
308 3 1  0.000000 59.672985 59.380333 96.428680
309 3 1  0.000000 61.208061 59.070023 95.980171
310 3 1  0.000000 62.095779 60.227325 96.095520
311 3 1  0.000000 62.985760 59.282990 96.862556
312 3 1  0.000000 63.586670 60.348587 95.597198
313 3 1  0.000000 64.214165 61.213566 94.587463
314 3 1  0.000000 65.118256 62.746582 94.432449
315 3 1  0.000000 65.445801 61.651978 94.156364
316 3 1  0.000000 64.191422 62.026249 92.724312
317 3 1  0.000000 63.465672 63.534000 91.646439
318 3 1  0.000000 62.923553 63.102222 90.039085
319 3 1  0.000000 63.572811 62.858459 88.844994
320 3 1  0.000000 64.585983 63.374519 89.231758
321 3 1  0.000000 65.839119 64.866356 89.053055
322 3 1  0.000000 66.764671 65.914772 87.651764
323 3 1  0.000000 67.019875 63.896610 87.012596
324 3 1  0.000000 68.472481 63.841312 85.971039
325 3 1  0.000000 68.921310 62.580521 84.403854
326 3 1  0.000000 69.854713 61.543522 85.000816
327 3 1  0.000000 71.200302 61.086868 84.338425
328 3 1  0.000000 72.334351 60.791100 85.214737
329 3 1  0.000000 72.762535 61.448112 86.434639
330 3 1  0.000000 73.572113 61.661858 87.717140
331 3 1  0.000000 72.839867 63.164520 87.699440
332 3 1  0.000000 74.580963 63.300011 87.996155
333 3 1  0.000000 76.309105 64.020134 87.899277
334 3 1  0.000000 77.399750 63.264355 86.956207
335 3 1  0.000000 76.536049 63.744724 85.477127
336 3 1  0.000000 78.414253 63.080013 84.695442
337 3 1  0.000000 79.683907 62.594948 84.157509
338 3 1  0.000000 81.465851 62.858765 85.238152
339 3 1  0.000000 82.815018 62.718433 85.945908
340 3 1  0.000000 81.168602 61.363384 86.352005
341 3 1  0.000000 81.577499 59.954338 86.773811
342 3 1  0.000000 81.040367 60.662285 88.355255
343 3 1  0.000000 80.057190 59.109478 88.736961
344 3 1  0.000000 81.555130 58.564590 88.589256
345 3 1  0.000000 81.272430 57.078842 87.462433
346 3 1  0.000000 79.985649 56.795681 87.566101
347 3 1  0.000000 80.556732 55.937664 86.000946
348 3 1  0.000000 82.711258 55.736156 85.983955
349 3 1  0.000000 84.434479 55.937290 86.891472
350 3 1  0.000000 86.318771 55.317932 86.266075
351 3 1  0.000000 86.708832 56.339432 87.356033
352 3 1  0.000000 87.804718 56.845238 89.085907
353 3 1  0.000000 87.476151 58.205898 88.936203
354 3 1  0.000000 87.079521 59.859528 88.091171
355 3 1  0.000000 86.558022 61.011242 87.707840
356 3 1  0.000000 88.219688 61.767254 88.612518
357 3 1  0.000000 89.793358 62.124371 88.531281
358 3 1  0.000000 91.052589 61.382988 87.807953
359 3 1  0.000000 90.208282 60.824436 86.595177
360 3 1  0.000000 89.817070 60.769730 84.887985
361 3 1  0.000000 90.366364 59.559139 84.045174
362 3 1  0.000000 90.030388 60.804779 83.127136
363 3 1  0.000000 89.888824 60.029667 81.996666
364 3 1  0.000000 91.130501 58.975941 81.853622
365 3 1  0.000000 90.514267 57.885284 81.078117
366 3 1  0.000000 91.316956 56.599846 81.690285
367 3 1  0.000000 93.100212 56.384876 82.046829
368 3 1  0.000000 93.945183 56.883965 82.847115
369 3 1  0.000000 94.306252 56.609219 84.597229
370 3 1  0.000000 94.199989 58.062416 85.020561
371 3 1  0.000000 94.273170 59.451027 86.168861
372 3 1  0.000000 93.898880 61.213539 85.908592
373 3 1  0.000000 95.276665 61.322464 85.858757
374 3 1  0.000000 95.115868 61.794010 86.939880
375 3 1  0.000000 95.452301 63.517162 86.993111
376 3 1  0.000000 96.186638 63.589321 88.113785
377 3 1  0.000000 97.230225 64.147507 87.419571
378 3 1  0.000000 97.677322 63.137074 88.672562
379 3 1  0.000000 98.844551 64.289253 88.821022
380 3 1  0.000000 99.652687 65.834946 88.945572
381 3 1  0.000000 99.782867 67.068642 89.979568
382 3 1  0.000000 101.227295 67.159790 88.995819
383 3 1  0.000000 103.098824 66.797821 90.054276
384 3 1  0.000000 103.951813 67.190071 91.268013
385 3 1  0.000000 105.043991 67.142738 90.531471
386 3 1  0.000000 106.042404 65.659866 90.881920
387 3 1  0.000000 107.614555 65.431625 90.370377
388 3 1  0.000000 107.062935 63.470913 90.537773
389 3 1  0.000000 107.274734 64.616341 89.583656
390 3 1  0.000000 108.098030 64.405739 88.113976
391 3 1  0.000000 108.260345 64.150291 86.299179
392 3 1  0.000000 107.310287 64.928886 85.962105
393 3 1  0.000000 108.363060 65.409203 84.864685
394 3 1  0.000000 107.750465 66.405739 83.856209
395 3 1  0.000000 108.972176 67.715828 83.087402
396 3 1  0.000000 110.659401 68.306908 82.333527
397 3 1  0.000000 110.982452 67.965218 83.766785
398 3 1  0.000000 111.742355 66.588768 82.177635
399 3 1  0.000000 112.923309 65.944130 82.611534
400 3 1  0.000000 112.264618 64.452263 82.919342
401 4 1  0.000000 56.017479 74.846855 64.571785
402 4 1  0.000000 57.431366 74.285065 65.076515
403 4 1  0.000000 57.330620 74.675758 66.596710
404 4 1  0.000000 58.196373 73.135841 67.428001
405 4 1  0.000000 57.262772 72.951523 68.544601
406 4 1  0.000000 58.565296 72.703712 69.326447
407 4 1  0.000000 59.294937 74.496933 70.158669
408 4 1  0.000000 59.595413 75.305489 70.929558
409 4 1  0.000000 59.916363 74.405319 72.555618
410 4 1  0.000000 60.611481 72.847000 73.101028
411 4 1  0.000000 60.472660 71.812202 74.177147
412 4 1  0.000000 59.889996 70.047157 74.314453
413 4 1  0.000000 58.904903 68.535004 74.538002
414 4 1  0.000000 59.672279 68.474480 75.917130
415 4 1  0.000000 59.479115 69.469353 77.130608
416 4 1  0.000000 59.514706 70.207527 78.536125
417 4 1  0.000000 59.789318 68.951775 79.658890
418 4 1  0.000000 60.188637 67.067902 78.845749
419 4 1  0.000000 59.599899 65.873169 78.245773
420 4 1  0.000000 58.429428 64.787033 78.558022
421 4 1  0.000000 59.354832 64.368820 77.655769
422 4 1  0.000000 59.340725 64.831505 75.612671
423 4 1  0.000000 60.261696 64.433800 74.332321
424 4 1  0.000000 61.353611 63.626755 73.109367
425 4 1  0.000000 61.943253 64.309708 71.500053
426 4 1  0.000000 62.739422 64.478683 70.053345
427 4 1  0.000000 63.810791 64.848953 69.165359
428 4 1  0.000000 63.984074 64.814163 70.459831
429 4 1  0.000000 65.534744 63.640411 70.759178
430 4 1  0.000000 66.185852 62.290466 69.802155
431 4 1  0.000000 66.645248 61.812023 71.671555
432 4 1  0.000000 67.426582 60.946449 72.348846
433 4 1  0.000000 66.271164 61.364662 73.400337
434 4 1  0.000000 67.453384 62.092434 74.432610
435 4 1  0.000000 67.158348 63.729649 73.884995
436 4 1  0.000000 68.678734 64.164986 73.557709
437 4 1  0.000000 69.980125 64.477089 74.564667
438 4 1  0.000000 69.180054 64.930473 76.248055
439 4 1  0.000000 70.419464 63.643093 75.404739
440 4 1  0.000000 70.311951 64.136513 76.948921
441 4 1  0.000000 71.902603 63.555988 77.279251
442 4 1  0.000000 73.436264 63.583004 77.235291
443 4 1  0.000000 72.771843 64.066589 78.246651
444 4 1  0.000000 73.773643 65.395042 78.489014
445 4 1  0.000000 72.616875 66.499954 78.401512
446 4 1  0.000000 73.885986 67.293442 77.985069
447 4 1  0.000000 74.381538 68.676888 77.606117
448 4 1  0.000000 73.173424 69.637268 77.520782
449 4 1  0.000000 73.442108 69.482803 76.275864
450 4 1  0.000000 72.842285 69.693237 75.075607
451 4 1  0.000000 71.996773 68.552940 73.488411
452 4 1  0.000000 70.850403 67.419777 73.337578
453 4 1  0.000000 72.398399 67.448212 72.484718
454 4 1  0.000000 74.011070 67.322708 72.319313
455 4 1  0.000000 75.907875 67.994850 72.186981
456 4 1  0.000000 75.041245 67.125145 71.621048
457 4 1  0.000000 75.071785 66.283150 70.333015
458 4 1  0.000000 75.788803 64.718681 69.422348
459 4 1  0.000000 76.967758 65.380173 68.694626
460 4 1  0.000000 78.042061 64.366051 69.112869
461 4 1  0.000000 79.271095 65.939720 68.410278
462 4 1  0.000000 79.037827 66.581367 67.424919
463 4 1  0.000000 80.564423 67.558380 66.564934
464 4 1  0.000000 80.561668 69.354271 66.487831
465 4 1  0.000000 82.374748 69.091881 65.377518
466 4 1  0.000000 83.520920 68.558388 64.891006
467 4 1  0.000000 83.199356 66.947716 65.516296
468 4 1  0.000000 84.599152 66.296364 65.928757
469 4 1  0.000000 83.787163 66.486961 67.676903
470 4 1  0.000000 84.935631 65.322754 67.528542
471 4 1  0.000000 87.114075 65.390228 67.579010
472 4 1  0.000000 87.960037 66.153824 67.420227
473 4 1  0.000000 88.571693 65.839546 67.975876
474 4 1  0.000000 90.072472 65.525810 68.986794
475 4 1  0.000000 90.804367 66.979729 69.119614
476 4 1  0.000000 90.072350 68.121101 69.828682
477 4 1  0.000000 91.487923 66.984184 70.037537
478 4 1  0.000000 92.148376 68.066940 69.903992
479 4 1  0.000000 93.393074 68.917381 70.433067
480 4 1  0.000000 93.989380 69.564812 69.405533
481 4 1  0.000000 95.659378 69.759331 68.900177
482 4 1  0.000000 95.386581 69.247849 67.755669
483 4 1  0.000000 96.316696 70.375267 67.874359
484 4 1  0.000000 97.397476 70.436127 69.432747
485 4 1  0.000000 98.515480 71.991806 69.594200
486 4 1  0.000000 97.848923 73.875549 69.346008
487 4 1  0.000000 97.934341 75.035324 69.148308
488 4 1  0.000000 96.384132 74.281189 68.003555
489 4 1  0.000000 96.674095 75.282310 66.643494
490 4 1  0.000000 97.241013 74.982048 65.206207
491 4 1  0.000000 98.467094 75.434219 65.360466
492 4 1  0.000000 99.670151 75.751015 64.587021
493 4 1  0.000000 99.866638 77.275238 64.209877
494 4 1  0.000000 99.373032 77.908089 62.733936
495 4 1  0.000000 97.952316 77.208710 61.693905
496 4 1  0.000000 96.168922 77.843750 62.076832
497 4 1  0.000000 95.572159 78.302917 60.533978
498 4 1  0.000000 96.174660 79.591980 59.626415
499 4 1  0.000000 94.327629 80.145447 59.754349
500 4 1  0.000000 93.002228 80.429756 58.998173
501 5 1  0.000000 42.264786 85.349396 71.169930
502 5 1  0.000000 42.460350 86.074814 70.098770
503 5 1  0.000000 42.269268 84.784889 69.152489
504 5 1  0.000000 41.575817 84.805748 68.274902
505 5 1  0.000000 43.125088 83.597694 68.452789
506 5 1  0.000000 43.360752 82.382767 69.730827
507 5 1  0.000000 43.339443 80.848328 69.822250
508 5 1  0.000000 44.542088 79.655830 69.310272
509 5 1  0.000000 45.440418 80.602158 69.524918
510 5 1  0.000000 46.207325 78.401909 69.188072
511 5 1  0.000000 47.613922 79.208809 69.909073
512 5 1  0.000000 48.484890 80.367813 68.597618
513 5 1  0.000000 50.415100 81.197517 69.391747
514 5 1  0.000000 51.588642 82.156311 69.927818
515 5 1  0.000000 52.600807 81.038750 70.267807
516 5 1  0.000000 53.662308 81.539185 71.025391
517 5 1  0.000000 53.532555 80.021568 71.670334
518 5 1  0.000000 55.074512 80.660728 71.642792
519 5 1  0.000000 56.421608 80.658417 72.027321
520 5 1  0.000000 57.807903 81.742004 71.168549
521 5 1  0.000000 59.389820 81.621086 70.915657
522 5 1  0.000000 59.307991 82.947395 69.867874
523 5 1  0.000000 60.000977 84.009918 70.979805
524 5 1  0.000000 61.767593 84.366829 70.619919
525 5 1  0.000000 63.544109 83.738876 70.628700
526 5 1  0.000000 63.876629 82.057213 71.628601
527 5 1  0.000000 63.947594 82.376724 72.632416
528 5 1  0.000000 64.036293 80.648392 72.414871
529 5 1  0.000000 64.992889 81.063362 74.077690
530 5 1  0.000000 65.932060 80.226280 75.039963
531 5 1  0.000000 66.751076 80.884644 76.218414
532 5 1  0.000000 66.975594 81.301178 74.687996
533 5 1  0.000000 67.872032 81.318848 76.038223
534 5 1  0.000000 69.606613 81.847176 75.892494
535 5 1  0.000000 70.686897 81.088890 77.118942
536 5 1  0.000000 70.564110 81.527489 75.536942
537 5 1  0.000000 71.501579 82.667892 76.770683
538 5 1  0.000000 72.957947 82.465836 76.517471
539 5 1  0.000000 73.119507 82.149155 75.165718
540 5 1  0.000000 74.448441 82.442261 76.314545
541 5 1  0.000000 75.003593 83.058533 75.483017
542 5 1  0.000000 75.272926 84.616516 75.357559
543 5 1  0.000000 75.707504 86.347725 75.799164
544 5 1  0.000000 76.835976 86.674522 76.393158
545 5 1  0.000000 76.551514 86.690056 78.392509
546 5 1  0.000000 75.449127 86.810837 80.242813
547 5 1  0.000000 75.986816 86.023689 79.116295
548 5 1  0.000000 76.110893 85.544250 80.666862
549 5 1  0.000000 74.886414 85.203697 81.404800
550 5 1  0.000000 75.360321 84.902939 83.089104
551 5 1  0.000000 76.350815 83.626915 84.074554
552 5 1  0.000000 77.867851 83.668236 83.978943
553 5 1  0.000000 79.280609 83.912819 83.011948
554 5 1  0.000000 78.494110 82.256027 81.960205
555 5 1  0.000000 79.161858 82.420273 80.791092
556 5 1  0.000000 79.452538 81.410599 79.981117
557 5 1  0.000000 80.029594 82.994957 79.539482
558 5 1  0.000000 81.077774 84.079254 79.797516
559 5 1  0.000000 82.816002 82.951332 79.683006
560 5 1  0.000000 83.551224 84.015450 80.720612
561 5 1  0.000000 84.768303 85.104988 81.025276
562 5 1  0.000000 85.822121 84.611282 82.072655
563 5 1  0.000000 83.844589 84.580383 81.908798
564 5 1  0.000000 82.914574 85.637115 83.611099
565 5 1  0.000000 83.629250 86.426765 84.691772
566 5 1  0.000000 84.585464 87.339516 84.396927
567 5 1  0.000000 85.302582 87.909172 85.700386
568 5 1  0.000000 86.394768 87.930717 85.235275
569 5 1  0.000000 86.259819 89.709229 84.806633
570 5 1  0.000000 87.208603 89.782677 85.262497
571 5 1  0.000000 88.760780 89.616745 84.405418
572 5 1  0.000000 89.672058 88.591125 85.708763
573 5 1  0.000000 90.638802 88.908585 84.516830
574 5 1  0.000000 91.354065 90.570831 84.799713
575 5 1  0.000000 92.017540 91.775108 84.760498
576 5 1  0.000000 93.241821 91.406593 84.802261
577 5 1  0.000000 94.349327 92.394508 84.708481
578 5 1  0.000000 95.343796 92.475685 85.732414
579 5 1  0.000000 94.283455 92.126213 86.803200
580 5 1  0.000000 95.463799 92.192192 87.831017
581 5 1  0.000000 95.967377 92.407135 89.157005
582 5 1  0.000000 96.416504 91.411537 89.602783
583 5 1  0.000000 97.248581 90.276291 90.880005
584 5 1  0.000000 98.690262 91.286530 91.159668
585 5 1  0.000000 99.283432 92.483093 91.814995
586 5 1  0.000000 99.708786 93.905182 91.871758
587 5 1  0.000000 100.744461 92.916122 91.894157
588 5 1  0.000000 101.741417 91.479576 91.044235
589 5 1  0.000000 102.943535 90.458145 90.121620
590 5 1  0.000000 102.629326 89.359245 89.886269
591 5 1  0.000000 104.316353 90.060135 90.435905
592 5 1  0.000000 104.790176 91.786583 91.056053
593 5 1  0.000000 106.464317 92.134117 90.697205
594 5 1  0.000000 106.998932 91.914581 89.645500
595 5 1  0.000000 108.067177 92.513535 88.761131
596 5 1  0.000000 109.370667 93.089996 90.118195
597 5 1  0.000000 110.176903 92.058037 90.748856
598 5 1  0.000000 111.594612 91.928978 89.580864
599 5 1  0.000000 111.483582 93.410896 89.599449
600 5 1  0.000000 112.416893 92.019753 89.194923
601 6 1  0.000000 57.950520 103.604286 65.498802
602 6 1  0.000000 57.880154 104.832726 64.673485
603 6 1  0.000000 57.091892 105.948921 64.094383
604 6 1  0.000000 55.961704 105.399757 64.607002
605 6 1  0.000000 54.976753 106.914444 64.951767
606 6 1  0.000000 53.934448 105.801682 64.323807
607 6 1  0.000000 54.761909 106.394882 66.134201
608 6 1  0.000000 55.397278 105.190880 67.761467
609 6 1  0.000000 55.137150 106.605438 68.273590
610 6 1  0.000000 55.724068 107.541794 69.066422
611 6 1  0.000000 56.708527 105.941956 69.519226
612 6 1  0.000000 56.074207 105.012306 71.118584
613 6 1  0.000000 55.102222 104.207489 71.681938
614 6 1  0.000000 55.924427 103.423248 71.278549
615 6 1  0.000000 57.268364 102.710228 72.151810
616 6 1  0.000000 58.525494 101.924278 71.149391
617 6 1  0.000000 60.104877 101.699821 71.606697