Created with TaichiMD

1000 atoms
990 bonds
  0 angles
  0 dihedrals
  0 impropers

1 atom types
1 bond types
0 angle types
0 dihedral types
0 improper types

-80.00000  80.00000 xlo xhi
-80.00000  80.00000 ylo yhi
-80.00000  80.00000 zlo zhi

Masses

1 10.0000

Atoms

  1 0 1  0.000000 105.158539 -3.338516 94.468742
  2 0 1  0.000000 106.996307 -4.029854 93.881531
  3 0 1  0.000000 107.806244 -5.035245 93.177147
  4 0 1  0.000000 109.238487 -4.516551 93.438133
  5 0 1  0.000000 110.711258 -4.462011 93.913261
  6 0 1  0.000000 111.409271 -3.779186 95.086845
  7 0 1  0.000000 112.519180 -3.775658 96.331718
  8 0 1  0.000000 113.065575 -2.586979 96.373154
  9 0 1  0.000000 114.576256 -2.043685 96.941170
 10 0 1  0.000000 115.137558 -0.733929 98.649002
 11 0 1  0.000000 114.566376  1.068799 99.783432
 12 0 1  0.000000 115.160782  2.154695 98.951996
 13 0 1  0.000000 113.924049  2.686470 98.619736
 14 0 1  0.000000 112.623596  3.282985 98.693649
 15 0 1  0.000000 111.098312  3.945069 98.443428
 16 0 1  0.000000 110.328720  3.739442 97.008850
 17 0 1  0.000000 108.943626  2.727799 98.138908
 18 0 1  0.000000 109.180046  1.782764 99.147751
 19 0 1  0.000000 107.557816  2.269511 98.620842
 20 0 1  0.000000 106.850121  3.516012 97.395927
 21 0 1  0.000000 105.526680  4.033738 96.478882
 22 0 1  0.000000 105.634850  5.673645 97.484322
 23 0 1  0.000000 105.870964  6.931599 96.226433
 24 0 1  0.000000 104.765877  7.119937 95.073853
 25 0 1  0.000000 103.587662  6.740818 95.812767
 26 0 1  0.000000 103.350227  5.584229 94.410225
 27 0 1  0.000000 103.186996  4.385115 93.368965
 28 0 1  0.000000 103.141426  3.942894 91.579086
 29 0 1  0.000000 101.627953  3.835499 91.650162
 30 0 1  0.000000 100.294075  5.245111 92.742783
 31 0 1  0.000000 99.829453  6.751228 92.408653
 32 0 1  0.000000 99.828224  8.575012 92.008247
 33 0 1  0.000000 101.124420  9.139359 92.782341
 34 0 1  0.000000 98.962784  9.509471 92.286247
 35 0 1  0.000000 99.722855 10.940941 93.454041
 36 0 1  0.000000 99.591248 12.283418 94.428123
 37 0 1  0.000000 98.568268 12.702968 93.970284
 38 0 1  0.000000 96.348236 12.234404 93.624580
 39 0 1  0.000000 95.722641 12.289039 91.877419
 40 0 1  0.000000 96.710869 12.298081 90.556755
 41 0 1  0.000000 94.615059 12.525269 90.955261
 42 0 1  0.000000 94.250778 14.526073 91.795258
 43 0 1  0.000000 93.043694 16.179895 91.783066
 44 0 1  0.000000 91.464447 15.744074 92.208832
 45 0 1  0.000000 89.365158 15.826694 91.802940
 46 0 1  0.000000 89.093147 16.762531 91.246231
 47 0 1  0.000000 87.925003 15.830870 92.187370
 48 0 1  0.000000 86.619698 16.134884 91.654129
 49 0 1  0.000000 84.966789 15.878835 92.074936
 50 0 1  0.000000 83.537727 17.144350 91.610306
 51 0 1  0.000000 81.841980 17.975225 90.869652
 52 0 1  0.000000 80.932953 18.938173 91.688080
 53 0 1  0.000000 80.147621 19.605370 92.453850
 54 0 1  0.000000 79.379456 18.634420 93.860229
 55 0 1  0.000000 78.998688 19.660774 93.554337
 56 0 1  0.000000 77.640778 20.903488 92.766075
 57 0 1  0.000000 76.691528 20.356050 93.810257
 58 0 1  0.000000 75.012535 19.600002 93.944267
 59 0 1  0.000000 72.973671 18.999733 94.093399
 60 0 1  0.000000 71.573830 18.728937 93.376793
 61 0 1  0.000000 71.626572 19.689573 94.639618
 62 0 1  0.000000 70.681709 20.550777 96.003662
 63 0 1  0.000000 71.063225 21.331099 96.879868
 64 0 1  0.000000 71.340508 22.597599 95.179344
 65 0 1  0.000000 71.573158 24.040007 95.353157
 66 0 1  0.000000 70.782661 24.817003 94.772705
 67 0 1  0.000000 69.565231 26.188955 94.452682
 68 0 1  0.000000 68.539818 26.102728 95.007401
 69 0 1  0.000000 67.740318 25.592491 96.141701
 70 0 1  0.000000 67.420311 26.567572 97.155869
 71 0 1  0.000000 66.155724 27.335543 97.691742
 72 0 1  0.000000 65.050537 27.768705 98.983231
 73 0 1  0.000000 63.943031 26.578945 99.474487
 74 0 1  0.000000 62.297726 26.788458 100.389282
 75 0 1  0.000000 61.846802 26.029112 98.881630
 76 0 1  0.000000 59.321716 26.048325 98.922394
 77 0 1  0.000000 59.623474 24.791086 99.288925
 78 0 1  0.000000 57.871143 25.715601 100.169243
 79 0 1  0.000000 56.300606 25.105772 101.211922
 80 0 1  0.000000 57.033039 26.892263 100.904312
 81 0 1  0.000000 56.112701 27.718689 101.713120
 82 0 1  0.000000 56.676662 27.510170 103.802551
 83 0 1  0.000000 55.446125 28.114889 104.270439
 84 0 1  0.000000 54.379883 26.665138 104.678650
 85 0 1  0.000000 53.029697 27.156116 105.042503
 86 0 1  0.000000 52.445580 28.206940 104.796616
 87 0 1  0.000000 52.163754 29.412703 105.718002
 88 0 1  0.000000 52.877014 30.225685 105.550774
 89 0 1  0.000000 52.031097 31.131277 107.845093
 90 0 1  0.000000 51.411201 31.070702 109.406517
 91 0 1  0.000000 50.667107 31.253931 110.647873
 92 0 1  0.000000 49.960964 30.292183 111.872818
 93 0 1  0.000000 49.813160 29.204472 113.233643
 94 0 1  0.000000 48.866123 29.887270 113.204933
 95 0 1  0.000000 48.018562 29.814793 114.227760
 96 0 1  0.000000 46.654343 30.572287 113.790535
 97 0 1  0.000000 45.978615 29.530037 113.567947
 98 0 1  0.000000 45.957531 28.116112 114.126106
 99 0 1  0.000000 44.592915 27.623026 114.684593
100 0 1  0.000000 44.927223 27.013533 113.646255
101 1 1  0.000000 118.720573 25.329264 95.338142
102 1 1  0.000000 119.947044 25.754904 96.629753
103 1 1  0.000000 120.877388 25.080914 95.290527
104 1 1  0.000000 122.401566 24.570799 95.629250
105 1 1  0.000000 122.484261 23.275986 95.125008
106 1 1  0.000000 123.618362 23.708426 94.624542
107 1 1  0.000000 124.684364 23.766886 93.522980
108 1 1  0.000000 126.444046 24.032499 94.724106
109 1 1  0.000000 127.011032 25.484409 96.134758
110 1 1  0.000000 128.139969 26.018942 97.484192
111 1 1  0.000000 128.876129 27.217957 96.790901
112 1 1  0.000000 128.642563 29.179298 96.911240
113 1 1  0.000000 128.247955 29.755980 96.321144
114 1 1  0.000000 128.323425 30.837965 94.874367
115 1 1  0.000000 126.979431 31.603783 95.564407
116 1 1  0.000000 125.511894 33.462921 94.959213
117 1 1  0.000000 124.394554 34.593002 95.222549
118 1 1  0.000000 124.179176 35.781227 94.238106
119 1 1  0.000000 124.612267 37.305698 94.924065
120 1 1  0.000000 123.138161 37.209572 95.494186
121 1 1  0.000000 122.192520 37.586098 94.036148
122 1 1  0.000000 120.373871 38.629837 94.332832
123 1 1  0.000000 118.908478 39.492943 94.826927
124 1 1  0.000000 117.474854 40.346588 95.420486
125 1 1  0.000000 117.686340 40.724144 94.135323
126 1 1  0.000000 116.367531 39.795334 94.462311
127 1 1  0.000000 115.306999 41.433475 95.408760
128 1 1  0.000000 114.000999 40.339806 95.691574
129 1 1  0.000000 113.324631 42.197952 95.303825
130 1 1  0.000000 112.371468 42.615055 94.200478
131 1 1  0.000000 112.392242 41.211708 94.426628
132 1 1  0.000000 110.763321 40.235477 94.362045
133 1 1  0.000000 108.854530 40.422863 94.270439
134 1 1  0.000000 108.238533 40.819069 92.996292
135 1 1  0.000000 106.960197 41.541298 93.414757
136 1 1  0.000000 106.373474 42.772697 92.577515
137 1 1  0.000000 105.798767 41.103867 93.001266
138 1 1  0.000000 104.857613 39.840694 91.739937
139 1 1  0.000000 104.132301 39.644375 90.787819
140 1 1  0.000000 102.355064 39.871254 90.004692
141 1 1  0.000000 101.861794 38.722309 89.870117
142 1 1  0.000000 100.086746 38.860180 90.801529
143 1 1  0.000000 98.688393 38.478619 89.925629
144 1 1  0.000000 98.136032 39.891411 88.698318
145 1 1  0.000000 96.399452 39.663818 88.854156
146 1 1  0.000000 95.995316 38.434834 88.323410
147 1 1  0.000000 95.320488 36.848335 87.578918
148 1 1  0.000000 93.302773 37.143223 86.742882
149 1 1  0.000000 93.350708 38.370152 86.586617
150 1 1  0.000000 92.741470 37.780514 85.391953
151 1 1  0.000000 92.483650 37.738899 83.756546
152 1 1  0.000000 90.846718 36.742401 82.759575
153 1 1  0.000000 88.858688 35.858299 83.566154
154 1 1  0.000000 87.899582 36.551937 84.571014
155 1 1  0.000000 86.442490 37.393501 84.966171
156 1 1  0.000000 85.163773 38.173004 84.714897
157 1 1  0.000000 83.815849 37.638855 84.046768
158 1 1  0.000000 82.877312 36.744034 83.636200
159 1 1  0.000000 81.587746 36.635242 81.553566
160 1 1  0.000000 79.986893 35.713799 81.053238
161 1 1  0.000000 79.166359 36.075512 80.358879
162 1 1  0.000000 77.603630 36.053226 80.844650
163 1 1  0.000000 75.997910 36.235424 80.570206
164 1 1  0.000000 74.491241 36.683781 81.235214
165 1 1  0.000000 74.289261 36.718025 79.944138
166 1 1  0.000000 72.741463 37.509602 80.659004
167 1 1  0.000000 71.525185 36.814533 80.796730
168 1 1  0.000000 70.866341 35.260624 80.542183
169 1 1  0.000000 69.615921 34.457066 80.366470
170 1 1  0.000000 68.690079 33.753571 81.687424
171 1 1  0.000000 67.889572 34.133049 82.531662
172 1 1  0.000000 67.483276 33.780132 84.181732
173 1 1  0.000000 66.361610 35.158951 84.637260
174 1 1  0.000000 64.924171 35.927689 84.356018
175 1 1  0.000000 63.787090 35.314579 83.177986
176 1 1  0.000000 62.177505 34.517349 82.958832
177 1 1  0.000000 61.584229 35.728279 84.103333
178 1 1  0.000000 60.150471 36.704029 83.340973
179 1 1  0.000000 58.457874 36.111126 82.785278
180 1 1  0.000000 57.182320 37.028027 82.538383
181 1 1  0.000000 56.422897 36.654949 83.954132
182 1 1  0.000000 54.931313 37.229542 84.839050
183 1 1  0.000000 53.047325 37.314453 84.256699
184 1 1  0.000000 51.159969 38.042904 84.154739
185 1 1  0.000000 50.623882 39.791210 82.904488
186 1 1  0.000000 49.614342 40.650562 81.861252
187 1 1  0.000000 48.991638 41.893646 82.646141
188 1 1  0.000000 48.798996 42.752651 81.931129
189 1 1  0.000000 47.241386 42.866608 81.453651
190 1 1  0.000000 46.494415 44.121025 81.045990
191 1 1  0.000000 45.830158 43.690655 79.629333
192 1 1  0.000000 45.292198 45.572021 78.758965
193 1 1  0.000000 44.905762 45.149185 76.971405
194 1 1  0.000000 44.832088 46.634312 75.018196
195 1 1  0.000000 46.110035 46.965027 73.652733
196 1 1  0.000000 47.287617 46.249195 72.627884
197 1 1  0.000000 48.562248 47.011696 71.314751
198 1 1  0.000000 48.798229 46.741982 69.758980
199 1 1  0.000000 49.141460 47.173996 68.177139
200 1 1  0.000000 48.565613 47.430561 67.330826
201 2 1  0.000000 104.789322 62.915833 48.320351
202 2 1  0.000000 105.703873 64.190018 47.449677
203 2 1  0.000000 106.943901 64.229355 46.887287
204 2 1  0.000000 107.029724 65.428070 46.179466
205 2 1  0.000000 106.612206 65.230576 44.463554
206 2 1  0.000000 106.380730 63.573578 43.281460
207 2 1  0.000000 107.425194 62.942787 43.068939
208 2 1  0.000000 105.703331 61.614151 43.237324
209 2 1  0.000000 105.441940 60.347649 43.792255
210 2 1  0.000000 105.343468 59.525257 45.132935
211 2 1  0.000000 104.905579 57.837547 45.061966
212 2 1  0.000000 103.199142 57.731457 44.999416
213 2 1  0.000000 102.703568 56.663399 45.823109
214 2 1  0.000000 103.202103 56.254627 44.559364
215 2 1  0.000000 103.755402 56.093967 42.892532
216 2 1  0.000000 103.803810 55.112400 42.569466
217 2 1  0.000000 104.707436 53.386196 42.261265
218 2 1  0.000000 103.399300 52.074192 42.586197
219 2 1  0.000000 104.992973 51.566929 42.963760
220 2 1  0.000000 105.871056 49.930771 44.253914
221 2 1  0.000000 105.048218 50.412121 45.242371
222 2 1  0.000000 104.363235 50.023262 47.029057
223 2 1  0.000000 104.726166 48.540791 47.740444
224 2 1  0.000000 103.708138 49.356518 47.987316
225 2 1  0.000000 102.992508 51.285847 48.428612
226 2 1  0.000000 102.053780 51.196167 49.853249
227 2 1  0.000000 101.853661 50.774567 51.611671
228 2 1  0.000000 101.717056 48.983139 52.253994
229 2 1  0.000000 101.337502 48.315063 53.698448
230 2 1  0.000000 100.065063 47.938030 54.680759
231 2 1  0.000000 99.518234 47.099590 56.052284
232 2 1  0.000000 98.652573 46.400017 57.055588
233 2 1  0.000000 97.736031 47.518631 57.511715
234 2 1  0.000000 96.156250 48.274254 59.130276
235 2 1  0.000000 95.143753 49.110733 58.228962
236 2 1  0.000000 95.457863 48.555073 59.451294
237 2 1  0.000000 94.250008 48.726562 60.868107
238 2 1  0.000000 93.228523 49.873684 61.618721
239 2 1  0.000000 92.862785 50.838741 60.667191
240 2 1  0.000000 91.565010 50.965694 60.339001
241 2 1  0.000000 89.849419 50.705448 61.135529
242 2 1  0.000000 88.912315 50.188877 62.795998
243 2 1  0.000000 89.057777 50.816837 60.517258
244 2 1  0.000000 87.648079 50.004322 60.283527
245 2 1  0.000000 86.862328 49.552601 62.084625
246 2 1  0.000000 85.749527 48.920990 63.411915
247 2 1  0.000000 84.663681 47.609131 63.114510
248 2 1  0.000000 83.211197 47.487911 64.594147
249 2 1  0.000000 81.603836 48.820114 64.776306
250 2 1  0.000000 81.654587 50.393177 65.229073
251 2 1  0.000000 80.352043 51.368366 65.252693
252 2 1  0.000000 80.895378 53.003609 65.931274
253 2 1  0.000000 79.585785 52.725491 67.090584
254 2 1  0.000000 78.462219 52.025673 66.273369
255 2 1  0.000000 76.871826 50.941185 65.845970
256 2 1  0.000000 75.546013 50.652557 66.258163
257 2 1  0.000000 73.987259 51.264473 65.117271
258 2 1  0.000000 74.453468 52.050385 66.675011
259 2 1  0.000000 72.574677 52.286243 66.205864
260 2 1  0.000000 71.268646 53.211132 67.749176
261 2 1  0.000000 70.321396 53.286797 68.893173
262 2 1  0.000000 69.108795 54.107319 68.391396
263 2 1  0.000000 67.737671 53.779140 69.647141
264 2 1  0.000000 66.474762 54.637016 68.782196
265 2 1  0.000000 66.598061 56.194016 68.245483
266 2 1  0.000000 64.492661 55.771191 68.184784
267 2 1  0.000000 62.901325 56.251423 68.270874
268 2 1  0.000000 60.797924 56.685181 68.573341
269 2 1  0.000000 59.609604 56.717117 70.169556
270 2 1  0.000000 57.640308 56.465706 70.455223
271 2 1  0.000000 56.974533 56.408779 69.188499
272 2 1  0.000000 56.755466 57.690350 69.840431
273 2 1  0.000000 56.550915 59.003918 70.525093
274 2 1  0.000000 55.685307 58.976387 72.315254
275 2 1  0.000000 53.273621 59.526379 72.027618
276 2 1  0.000000 52.458275 59.347496 72.968727
277 2 1  0.000000 51.755157 59.067116 74.301796
278 2 1  0.000000 50.197250 58.347225 75.540733
279 2 1  0.000000 48.730465 58.287384 76.640511
280 2 1  0.000000 46.864204 59.132294 76.694511
281 2 1  0.000000 46.102627 57.850506 76.792976
282 2 1  0.000000 44.853569 58.187748 77.254105
283 2 1  0.000000 44.258732 57.106236 77.600838
284 2 1  0.000000 44.010098 55.141705 78.812988
285 2 1  0.000000 42.143929 55.349632 79.143723
286 2 1  0.000000 41.235886 55.197250 79.710503
287 2 1  0.000000 39.718601 55.823811 79.605125
288 2 1  0.000000 39.720425 55.297344 81.149925
289 2 1  0.000000 39.606819 55.980602 82.528343
290 2 1  0.000000 39.362198 57.126404 81.694572
291 2 1  0.000000 38.642464 58.385654 83.416428
292 2 1  0.000000 37.373024 59.312714 83.921333
293 2 1  0.000000 36.969009 61.413937 83.571815
294 2 1  0.000000 38.256588 61.152985 83.878929
295 2 1  0.000000 37.794830 62.877323 83.548416
296 2 1  0.000000 38.218834 62.491367 85.566742
297 2 1  0.000000 39.323914 62.661461 86.871628
298 2 1  0.000000 39.854153 62.788086 88.128029
299 2 1  0.000000 40.204460 61.611347 89.599419
300 2 1  0.000000 41.035053 61.454155 90.640457
301 3 1  0.000000 110.679474 71.141151 102.262108
302 3 1  0.000000 108.747139 70.121185 102.725975
303 3 1  0.000000 108.250572 70.165802 100.946739
304 3 1  0.000000 108.283920 70.066444 99.765434
305 3 1  0.000000 107.799919 68.684029 100.436111
306 3 1  0.000000 106.066422 68.901649 101.841339
307 3 1  0.000000 105.427742 69.282997 103.639160
308 3 1  0.000000 104.652611 68.534103 104.988441
309 3 1  0.000000 105.464066 68.164757 106.346077
310 3 1  0.000000 106.864761 68.357285 105.928810
311 3 1  0.000000 105.893188 67.109825 106.548866
312 3 1  0.000000 104.898399 66.188858 107.914459
313 3 1  0.000000 104.056145 64.483841 107.795525
314 3 1  0.000000 104.896378 63.754868 108.946365
315 3 1  0.000000 105.965141 63.181461 109.774467
316 3 1  0.000000 107.181244 62.906570 109.917465
317 3 1  0.000000 106.700493 63.238049 111.460052
318 3 1  0.000000 107.369247 62.638489 113.303047
319 3 1  0.000000 106.534256 61.852650 114.899071
320 3 1  0.000000 106.062111 60.729828 115.788025
321 3 1  0.000000 105.180283 60.050209 115.525536
322 3 1  0.000000 103.276932 60.867764 116.002441
323 3 1  0.000000 102.602524 59.346680 114.814232
324 3 1  0.000000 102.163597 57.821938 115.777596
325 3 1  0.000000 101.309807 56.443314 117.541573
326 3 1  0.000000 101.301163 56.131668 118.879982
327 3 1  0.000000 99.949135 55.809166 118.783417
328 3 1  0.000000 99.915977 56.296467 117.482101
329 3 1  0.000000 98.198448 56.513973 116.486137
330 3 1  0.000000 97.169540 55.131844 116.272072
331 3 1  0.000000 95.744911 54.182137 115.512863
332 3 1  0.000000 94.621170 55.461559 115.128967
333 3 1  0.000000 93.172607 54.645248 114.666832
334 3 1  0.000000 91.648468 54.977383 113.343094
335 3 1  0.000000 90.563805 55.121365 111.680443
336 3 1  0.000000 91.431282 55.330158 110.021866
337 3 1  0.000000 91.955963 56.000275 108.601845
338 3 1  0.000000 90.250404 57.002747 109.325180
339 3 1  0.000000 90.410454 56.282501 108.017570
340 3 1  0.000000 89.066017 57.373547 108.963867
341 3 1  0.000000 88.633652 58.058395 107.529030
342 3 1  0.000000 88.169167 57.470970 105.945419
343 3 1  0.000000 89.671051 58.613838 104.701347
344 3 1  0.000000 89.738083 56.904713 104.513321
345 3 1  0.000000 88.719055 57.055775 102.788933
346 3 1  0.000000 87.971481 57.607964 101.466240
347 3 1  0.000000 87.081261 58.173927 100.429054
348 3 1  0.000000 87.726784 59.378532 99.406822
349 3 1  0.000000 87.962112 59.817375 98.007149
350 3 1  0.000000 86.760017 61.149250 97.386475
351 3 1  0.000000 85.738541 59.295135 96.472618
352 3 1  0.000000 86.046463 60.040112 94.459297
353 3 1  0.000000 86.622040 59.062786 95.349342
354 3 1  0.000000 87.705589 58.875538 93.515968
355 3 1  0.000000 88.476990 58.608898 94.775475
356 3 1  0.000000 89.556763 58.357246 93.667679
357 3 1  0.000000 88.964996 56.860897 93.672401
358 3 1  0.000000 90.032936 55.717007 92.914581
359 3 1  0.000000 88.526489 55.184818 92.740372
360 3 1  0.000000 88.434639 54.162148 94.247246
361 3 1  0.000000 88.601013 54.076504 95.649635
362 3 1  0.000000 87.127831 52.602829 95.326782
363 3 1  0.000000 86.299179 52.676689 93.937737
364 3 1  0.000000 84.909218 53.516098 92.641830
365 3 1  0.000000 83.607155 54.773201 92.365372
366 3 1  0.000000 82.389214 55.972748 92.424782
367 3 1  0.000000 82.303215 57.518574 92.993996
368 3 1  0.000000 82.725769 58.879536 93.413170
369 3 1  0.000000 82.656548 58.546314 91.890213
370 3 1  0.000000 82.030022 59.772175 92.828911
371 3 1  0.000000 82.891472 61.039097 93.856430
372 3 1  0.000000 82.992531 62.506615 94.690254
373 3 1  0.000000 82.604561 62.630615 93.343140
374 3 1  0.000000 81.165520 62.831146 94.173347
375 3 1  0.000000 79.492439 62.969112 94.660469
376 3 1  0.000000 78.957077 62.797092 92.357010
377 3 1  0.000000 80.409271 62.147526 91.408417
378 3 1  0.000000 81.035728 62.485985 90.265930
379 3 1  0.000000 80.540001 62.797527 88.991272
380 3 1  0.000000 79.789047 64.522881 89.072861
381 3 1  0.000000 80.492729 65.121498 88.130997
382 3 1  0.000000 80.992622 65.211823 86.586899
383 3 1  0.000000 81.556686 64.383224 86.113823
384 3 1  0.000000 82.079163 65.667473 86.234070
385 3 1  0.000000 83.596497 65.580605 85.217865
386 3 1  0.000000 83.383331 67.708405 85.589066
387 3 1  0.000000 81.984718 68.847458 85.254585
388 3 1  0.000000 81.625359 69.542984 86.735138
389 3 1  0.000000 82.141319 71.336304 85.914986
390 3 1  0.000000 80.961685 72.445122 85.742676
391 3 1  0.000000 80.824051 73.993050 85.658821
392 3 1  0.000000 80.709526 75.336693 86.722466
393 3 1  0.000000 78.668312 74.643738 87.030380
394 3 1  0.000000 77.407028 73.791756 87.684570
395 3 1  0.000000 76.560349 73.817787 89.263145
396 3 1  0.000000 75.588417 74.424881 87.586342
397 3 1  0.000000 74.984039 76.042610 86.822380
398 3 1  0.000000 74.811371 77.522575 88.486389
399 3 1  0.000000 76.532364 78.608063 88.893936
400 3 1  0.000000 75.532700 79.614883 90.204460
401 4 1  0.000000 98.382149 69.967201 62.878563
402 4 1  0.000000 98.264175 70.690369 62.127407
403 4 1  0.000000 97.386894 69.915321 61.021229
404 4 1  0.000000 96.202911 69.523392 60.949596
405 4 1  0.000000 95.647385 67.796860 59.941551
406 4 1  0.000000 94.662498 67.056366 60.817322
407 4 1  0.000000 92.930779 66.776703 61.359955
408 4 1  0.000000 91.807541 65.435921 61.204411
409 4 1  0.000000 90.565140 66.334206 62.318336
410 4 1  0.000000 91.179070 64.929390 62.979256
411 4 1  0.000000 91.392677 65.210289 64.825584
412 4 1  0.000000 90.473579 65.516220 66.223259
413 4 1  0.000000 90.266937 64.190987 66.092949
414 4 1  0.000000 90.773926 64.251663 67.337502
415 4 1  0.000000 90.402527 63.439705 68.114906
416 4 1  0.000000 91.956902 63.197308 68.257179
417 4 1  0.000000 92.624100 63.866005 69.993568
418 4 1  0.000000 93.299400 64.491272 70.867096
419 4 1  0.000000 92.103165 65.362854 69.936234
420 4 1  0.000000 93.443428 66.174385 69.792229
421 4 1  0.000000 92.509781 67.099045 69.379654
422 4 1  0.000000 92.112328 68.895386 69.595001
423 4 1  0.000000 92.713615 70.219673 69.217529
424 4 1  0.000000 92.961746 70.259354 67.826668
425 4 1  0.000000 94.347916 69.597496 67.633087
426 4 1  0.000000 94.989777 68.182259 67.330696
427 4 1  0.000000 94.342117 69.275200 66.062935
428 4 1  0.000000 94.989761 68.222176 65.802948
429 4 1  0.000000 96.170929 66.968475 65.361153
430 4 1  0.000000 96.603195 66.026169 65.712334
431 4 1  0.000000 95.961334 66.355515 64.294540
432 4 1  0.000000 95.114357 64.698349 64.605614
433 4 1  0.000000 96.252319 63.902641 63.219151
434 4 1  0.000000 96.417740 63.010822 62.430202
435 4 1  0.000000 96.796928 61.301392 62.039738
436 4 1  0.000000 95.002953 62.192665 62.130638
437 4 1  0.000000 94.480797 60.835499 60.839256
438 4 1  0.000000 94.269302 59.720684 62.831142
439 4 1  0.000000 93.191902 58.623276 63.414364
440 4 1  0.000000 93.498177 57.086433 62.489876
441 4 1  0.000000 91.824181 56.579983 61.734722
442 4 1  0.000000 90.743088 55.431118 61.610096
443 4 1  0.000000 88.862885 55.131077 61.674553
444 4 1  0.000000 87.766670 54.907829 60.605106
445 4 1  0.000000 85.758568 54.784931 60.350853
446 4 1  0.000000 86.173401 56.269905 61.330547
447 4 1  0.000000 84.113472 56.072544 61.284431
448 4 1  0.000000 82.142632 57.143841 61.063992
449 4 1  0.000000 81.494759 56.319065 59.375195
450 4 1  0.000000 79.665215 56.875523 58.764503
451 4 1  0.000000 77.760513 57.231857 58.246544
452 4 1  0.000000 76.916664 58.112671 56.770958
453 4 1  0.000000 75.016571 57.708153 56.826263
454 4 1  0.000000 73.606140 58.139286 55.755520
455 4 1  0.000000 72.675163 59.017090 54.739319
456 4 1  0.000000 71.569878 59.812927 54.295715
457 4 1  0.000000 71.243439 61.691467 53.629791
458 4 1  0.000000 70.287041 61.958771 52.502399
459 4 1  0.000000 69.745750 63.246159 53.477119
460 4 1  0.000000 68.326500 63.739864 53.776947
461 4 1  0.000000 67.539398 65.331787 52.969025
462 4 1  0.000000 65.784172 64.573105 51.836796
463 4 1  0.000000 64.146156 63.357243 51.416557
464 4 1  0.000000 63.432514 63.133392 50.337231
465 4 1  0.000000 62.319824 64.065521 50.861088
466 4 1  0.000000 60.539852 63.921356 50.129555
467 4 1  0.000000 58.863003 64.387878 50.658855
468 4 1  0.000000 57.959671 63.677109 52.118027
469 4 1  0.000000 57.440388 65.255913 52.098263
470 4 1  0.000000 56.094574 66.589806 51.543285
471 4 1  0.000000 54.469105 65.245087 51.143570
472 4 1  0.000000 53.297642 65.394020 50.717606
473 4 1  0.000000 51.948261 64.299553 50.529060
474 4 1  0.000000 51.151852 63.344109 49.593426
475 4 1  0.000000 49.641479 63.337727 50.072002
476 4 1  0.000000 49.354218 64.861198 50.972408
477 4 1  0.000000 49.229069 64.596237 52.514069
478 4 1  0.000000 47.715042 65.898071 51.984390
479 4 1  0.000000 46.747402 66.946930 51.210438
480 4 1  0.000000 45.657074 65.649490 50.889416
481 4 1  0.000000 44.027431 66.357658 51.343475
482 4 1  0.000000 43.495789 68.639526 51.673897
483 4 1  0.000000 41.378281 67.961830 51.046776
484 4 1  0.000000 39.895645 68.489693 50.277641
485 4 1  0.000000 38.236797 67.708496 50.424816
486 4 1  0.000000 37.524273 67.862656 49.211338
487 4 1  0.000000 37.414139 68.676773 47.477489
488 4 1  0.000000 36.933762 68.971359 45.590118
489 4 1  0.000000 38.429871 68.854752 45.730846
490 4 1  0.000000 37.730507 70.157921 46.034714
491 4 1  0.000000 35.485001 70.704422 46.426952
492 4 1  0.000000 33.504620 71.406471 46.569637
493 4 1  0.000000 32.422817 72.267494 45.200657
494 4 1  0.000000 32.502918 73.941971 44.967937
495 4 1  0.000000 32.668587 74.851089 45.807503
496 4 1  0.000000 31.261080 75.914085 45.369053
497 4 1  0.000000 31.079683 77.109550 46.601364
498 4 1  0.000000 31.324059 76.684097 48.460583
499 4 1  0.000000 32.070030 75.989166 50.341019
500 4 1  0.000000 32.002686 76.764381 51.719013
501 5 1  0.000000 101.699265 74.595062 58.256329
502 5 1  0.000000 100.712006 73.630775 58.574825
503 5 1  0.000000 101.761620 74.651993 59.795109
504 5 1  0.000000 101.674583 73.616867 60.552353
505 5 1  0.000000 100.858215 73.878220 61.674980
506 5 1  0.000000 100.599678 74.432205 63.163307
507 5 1  0.000000 100.338814 75.345993 63.688507
508 5 1  0.000000 100.034279 77.160881 63.740078
509 5 1  0.000000 100.180923 78.160736 62.252785
510 5 1  0.000000 101.065437 78.466415 63.720264
511 5 1  0.000000 101.378792 79.283180 63.292324
512 5 1  0.000000 102.185684 79.848541 61.316734
513 5 1  0.000000 102.960510 80.098961 60.866508
514 5 1  0.000000 104.649063 80.915024 60.552338
515 5 1  0.000000 106.173172 81.320732 61.209866
516 5 1  0.000000 106.055283 82.108559 59.960835
517 5 1  0.000000 105.401970 83.321991 59.729488
518 5 1  0.000000 106.222954 84.907028 60.594254
519 5 1  0.000000 106.266747 86.079300 61.943340
520 5 1  0.000000 106.019707 85.495682 63.553249
521 5 1  0.000000 105.244949 85.717606 64.929886
522 5 1  0.000000 104.159454 87.235260 65.265724
523 5 1  0.000000 103.559761 86.605461 66.124367
524 5 1  0.000000 101.890358 86.722130 67.040878
525 5 1  0.000000 101.117058 86.828384 68.784836
526 5 1  0.000000 100.377060 86.846527 70.465347
527 5 1  0.000000 98.798317 85.108383 70.693939
528 5 1  0.000000 98.867607 85.418671 72.388588
529 5 1  0.000000 97.246620 85.875565 73.582001
530 5 1  0.000000 96.253845 85.231255 74.286774
531 5 1  0.000000 97.520203 83.821579 75.102394
532 5 1  0.000000 96.239136 83.612823 76.159935
533 5 1  0.000000 96.326363 83.106415 77.558090
534 5 1  0.000000 94.849327 83.788437 78.244087
535 5 1  0.000000 93.383041 83.589790 78.375076
536 5 1  0.000000 92.128586 84.922058 78.100243
537 5 1  0.000000 91.195038 83.856644 79.423759
538 5 1  0.000000 89.922409 83.885284 80.322655
539 5 1  0.000000 88.275398 83.291595 80.653786
540 5 1  0.000000 87.781807 84.116928 81.957054
541 5 1  0.000000 86.505028 83.497772 83.471832
542 5 1  0.000000 85.780998 82.110466 82.580399
543 5 1  0.000000 84.246971 82.665993 83.050064
544 5 1  0.000000 83.034431 83.221596 82.500717
545 5 1  0.000000 82.756439 85.057892 82.402245
546 5 1  0.000000 81.498581 85.882080 83.268173
547 5 1  0.000000 80.211189 85.784180 83.688850
548 5 1  0.000000 78.063408 85.873337 84.420250
549 5 1  0.000000 77.687874 86.734268 85.461365
550 5 1  0.000000 78.808197 87.989784 85.384689
551 5 1  0.000000 76.620949 87.839157 84.962280
552 5 1  0.000000 75.034958 87.375038 85.382790
553 5 1  0.000000 73.695671 88.004951 85.984192
554 5 1  0.000000 72.966141 87.255264 86.899628
555 5 1  0.000000 71.195274 87.536217 87.308044
556 5 1  0.000000 70.301453 86.130798 88.266739
557 5 1  0.000000 69.298470 86.894928 87.376076
558 5 1  0.000000 67.059387 87.906349 87.441818
559 5 1  0.000000 65.563370 87.243103 88.181076
560 5 1  0.000000 64.364029 86.589775 88.224220
561 5 1  0.000000 63.279434 86.976624 87.645943
562 5 1  0.000000 62.282471 86.999428 88.880463
563 5 1  0.000000 61.053616 86.845589 90.358910
564 5 1  0.000000 59.193748 86.672424 90.346901
565 5 1  0.000000 58.286507 86.752884 89.691742
566 5 1  0.000000 58.754025 87.662598 89.750542
567 5 1  0.000000 57.630718 88.698532 89.324310
568 5 1  0.000000 55.850216 89.347389 88.258522
569 5 1  0.000000 55.739555 89.697647 86.436401
570 5 1  0.000000 53.838787 88.704132 86.656670
571 5 1  0.000000 52.417542 89.230804 87.499809
572 5 1  0.000000 51.938545 88.671509 85.876709
573 5 1  0.000000 50.791344 87.906570 86.460655
574 5 1  0.000000 49.119080 88.104225 87.462479
575 5 1  0.000000 48.208870 89.105309 87.992615
576 5 1  0.000000 47.204098 87.628113 88.814621
577 5 1  0.000000 47.508354 87.093086 89.897057
578 5 1  0.000000 46.961105 88.093475 91.446304
579 5 1  0.000000 45.397114 88.940285 92.219002
580 5 1  0.000000 44.481789 87.733414 92.761292
581 5 1  0.000000 43.076210 88.310867 93.465042
582 5 1  0.000000 42.274788 89.744408 93.185387
583 5 1  0.000000 42.076294 90.899437 94.013023
584 5 1  0.000000 40.771820 91.217499 94.675308
585 5 1  0.000000 38.806587 92.457642 93.783813
586 5 1  0.000000 37.626820 92.757988 92.344048
587 5 1  0.000000 36.462048 92.200256 92.814125
588 5 1  0.000000 34.802406 91.229385 92.346245
589 5 1  0.000000 32.730980 91.629074 93.052635
590 5 1  0.000000 31.845856 92.031677 94.782852
591 5 1  0.000000 30.354776 92.060112 95.690269
592 5 1  0.000000 28.622673 92.379623 96.216354
593 5 1  0.000000 28.395432 93.379799 97.497498
594 5 1  0.000000 25.955410 93.114609 97.252403
595 5 1  0.000000 25.174757 93.993256 98.275482
596 5 1  0.000000 25.208008 95.740448 98.608635
597 5 1  0.000000 24.307419 97.059692 99.124977
598 5 1  0.000000 23.211468 98.202667 98.675041
599 5 1  0.000000 24.035286 99.021309 98.702682
600 5 1  0.000000 23.319593 99.107391 100.089409
601 6 1  0.000000 93.887306 95.814384 69.573601
602 6 1  0.000000 92.874107 95.858864 70.334320
603 6 1  0.000000 91.792610 97.250023 70.472763
604 6 1  0.000000 91.949234 97.696342 68.704559
605 6 1  0.000000 91.961479 99.356476 69.385605
606 6 1  0.000000 90.434494 99.203934 69.736969
607 6 1  0.000000 89.048767 98.482201 70.983833
608 6 1  0.000000 88.111519 99.381798 70.311226
609 6 1  0.000000 88.409683 97.757530 70.685768
610 6 1  0.000000 86.487770 98.088631 70.002693
611 6 1  0.000000 86.256233 99.088890 68.070122
612 6 1  0.000000 86.014297 98.833252 66.274010
613 6 1  0.000000 86.452652 97.087357 66.415695
614 6 1  0.000000 87.720573 96.421730 67.078148