Created with TaichiMD

1000 atoms
990 bonds
  0 angles
  0 dihedrals
  0 impropers

1 atom types
1 bond types
0 angle types
0 dihedral types
0 improper types

-80.00000  80.00000 xlo xhi
-80.00000  80.00000 ylo yhi
-80.00000  80.00000 zlo zhi

Masses

1  1.0000

Atoms

  1 0 1  0.000000 111.175064 -6.754175 48.215096
  2 0 1  0.000000 111.213020 -7.184832 46.648911
  3 0 1  0.000000 112.254906 -7.239500 47.924931
  4 0 1  0.000000 113.339767 -7.610036 46.492722
  5 0 1  0.000000 114.611961 -8.389990 46.114391
  6 0 1  0.000000 115.338829 -8.311836 47.362171
  7 0 1  0.000000 115.936150 -8.523164 48.963188
  8 0 1  0.000000 117.280067 -9.066545 49.470573
  9 0 1  0.000000 118.408600 -8.437387 50.485554
 10 0 1  0.000000 118.083435 -7.077084 50.902306
 11 0 1  0.000000 119.055153 -6.697647 52.048428
 12 0 1  0.000000 118.056686 -5.741010 51.785469
 13 0 1  0.000000 118.973343 -4.600648 51.647987
 14 0 1  0.000000 119.597778 -4.601336 53.161312
 15 0 1  0.000000 120.328682 -4.502684 54.446934
 16 0 1  0.000000 121.622704 -4.181492 55.529392
 17 0 1  0.000000 121.470390 -5.253659 56.785038
 18 0 1  0.000000 120.701767 -6.100357 58.135609
 19 0 1  0.000000 119.770248 -6.195546 59.384392
 20 0 1  0.000000 121.115395 -6.037953 60.315224
 21 0 1  0.000000 120.170830 -4.608509 60.270367
 22 0 1  0.000000 118.627464 -3.827931 60.255070
 23 0 1  0.000000 117.673149 -2.820845 60.677147
 24 0 1  0.000000 116.486183 -2.903429 61.333817
 25 0 1  0.000000 115.881935 -3.435624 62.602135
 26 0 1  0.000000 114.843079 -2.380412 62.254051
 27 0 1  0.000000 114.578751 -0.816693 62.812965
 28 0 1  0.000000 114.637688  0.541833 63.516994
 29 0 1  0.000000 114.637535  1.819232 64.526077
 30 0 1  0.000000 114.155075  0.433957 65.064529
 31 0 1  0.000000 113.995514  0.833088 66.472397
 32 0 1  0.000000 113.234009  0.245250 67.497154
 33 0 1  0.000000 111.811554  0.540871 67.344734
 34 0 1  0.000000 110.196976  0.340822 67.764183
 35 0 1  0.000000 110.610542 -0.197077 69.192123
 36 0 1  0.000000 109.353073 -0.901667 69.762375
 37 0 1  0.000000 108.445122 -2.142300 69.454018
 38 0 1  0.000000 107.619453 -2.563605 68.518219
 39 0 1  0.000000 105.943916 -2.109107 68.191429
 40 0 1  0.000000 105.089172 -3.286587 68.415184
 41 0 1  0.000000 104.874168 -3.288594 69.930092
 42 0 1  0.000000 103.385948 -3.764440 69.449112
 43 0 1  0.000000 101.963211 -4.005198 69.004944
 44 0 1  0.000000 101.644402 -5.553416 68.709747
 45 0 1  0.000000 100.484200 -5.813460 67.761238
 46 0 1  0.000000 99.352089 -4.671919 67.398811
 47 0 1  0.000000 98.000275 -5.480116 67.528450
 48 0 1  0.000000 96.556007 -5.209683 67.519341
 49 0 1  0.000000 95.104568 -4.855419 67.635658
 50 0 1  0.000000 95.539192 -3.611693 68.654457
 51 0 1  0.000000 95.555634 -3.916337 69.980591
 52 0 1  0.000000 94.518227 -4.829957 70.632675
 53 0 1  0.000000 95.099907 -4.290480 71.971466
 54 0 1  0.000000 96.074127 -5.673798 71.963486
 55 0 1  0.000000 96.004585 -7.138773 72.725342
 56 0 1  0.000000 95.079689 -7.637319 74.108376
 57 0 1  0.000000 95.833679 -6.421277 74.767357
 58 0 1  0.000000 94.392151 -6.246278 75.483604
 59 0 1  0.000000 93.802002 -4.672522 75.611191
 60 0 1  0.000000 95.077820 -3.682689 76.164803
 61 0 1  0.000000 93.208809 -3.503470 76.497108
 62 0 1  0.000000 92.852348 -3.389252 77.731026
 63 0 1  0.000000 92.292664 -1.972931 78.077919
 64 0 1  0.000000 91.733727 -1.266621 79.446953
 65 0 1  0.000000 91.313171  0.020430 80.241859
 66 0 1  0.000000 90.281097  0.320160 81.073090
 67 0 1  0.000000 88.943878  1.143410 80.631157
 68 0 1  0.000000 89.006844  2.856425 80.497147
 69 0 1  0.000000 88.069389  2.742561 79.132744
 70 0 1  0.000000 86.957138  2.853853 78.208900
 71 0 1  0.000000 85.959854  2.879131 76.986122
 72 0 1  0.000000 85.885818  1.115748 77.736916
 73 0 1  0.000000 85.661476 -0.321658 77.553040
 74 0 1  0.000000 84.626373 -1.533082 77.668037
 75 0 1  0.000000 83.394691 -2.610958 77.861389
 76 0 1  0.000000 84.482704 -3.513623 77.210426
 77 0 1  0.000000 85.829689 -3.882036 77.658043
 78 0 1  0.000000 86.964821 -4.643602 78.236961
 79 0 1  0.000000 87.547165 -5.641450 77.334763
 80 0 1  0.000000 87.813095 -6.941313 76.334938
 81 0 1  0.000000 87.086090 -8.347795 76.388245
 82 0 1  0.000000 86.807259 -9.944377 76.482307
 83 0 1  0.000000 85.741318 -9.057479 77.103531
 84 0 1  0.000000 85.001793 -8.584326 78.067413
 85 0 1  0.000000 83.530197 -8.349331 78.754417
 86 0 1  0.000000 82.950897 -8.930773 80.084785
 87 0 1  0.000000 82.132675 -9.714723 78.901321
 88 0 1  0.000000 80.783470 -9.830615 78.080338
 89 0 1  0.000000 79.354034 -9.444971 78.734688
 90 0 1  0.000000 79.851921 -10.713059 77.929459
 91 0 1  0.000000 79.497917 -12.203508 77.503632
 92 0 1  0.000000 79.942192 -13.169730 76.384460
 93 0 1  0.000000 80.157959 -14.522221 75.463570
 94 0 1  0.000000 81.646805 -14.692131 75.676132
 95 0 1  0.000000 81.402710 -16.186495 76.019936
 96 0 1  0.000000 80.799957 -17.425165 75.844421
 97 0 1  0.000000 82.116722 -18.358646 76.031044
 98 0 1  0.000000 82.054321 -18.696367 74.515511
 99 0 1  0.000000 82.364235 -19.482672 73.101349
100 0 1  0.000000 83.639481 -19.318621 73.727699
101 1 1  0.000000 100.058334 48.526913 86.841911
102 1 1  0.000000 100.124237 47.768299 85.745537
103 1 1  0.000000 100.796181 47.526455 87.111320
104 1 1  0.000000 101.684074 47.747208 88.335075
105 1 1  0.000000 102.438683 48.607986 89.487808
106 1 1  0.000000 103.722015 47.656471 89.873734
107 1 1  0.000000 105.083755 47.748512 90.484032
108 1 1  0.000000 106.476051 47.519951 91.110222
109 1 1  0.000000 107.796944 47.222225 90.760475
110 1 1  0.000000 107.952187 48.379581 89.639694
111 1 1  0.000000 108.627495 47.930126 88.018257
112 1 1  0.000000 108.231049 49.353939 87.598389
113 1 1  0.000000 109.052757 48.038345 86.779182
114 1 1  0.000000 109.850151 47.990917 85.455627
115 1 1  0.000000 109.353981 47.688919 83.952103
116 1 1  0.000000 110.365440 47.364155 82.840935
117 1 1  0.000000 110.037605 47.961636 81.325073
118 1 1  0.000000 110.122887 48.864044 79.995056
119 1 1  0.000000 111.661858 48.103893 80.029282
120 1 1  0.000000 112.790771 47.228470 80.327217
121 1 1  0.000000 113.261650 48.398323 79.509438
122 1 1  0.000000 114.673073 48.140621 79.605980
123 1 1  0.000000 115.309525 46.579987 79.640045
124 1 1  0.000000 115.397705 45.960381 78.263580
125 1 1  0.000000 115.246017 45.120583 76.941536
126 1 1  0.000000 114.301216 45.739506 75.812706
127 1 1  0.000000 112.762260 46.250591 76.038040
128 1 1  0.000000 111.732498 45.596466 77.048691
129 1 1  0.000000 110.468124 44.988655 77.924820
130 1 1  0.000000 110.805389 43.625221 77.560616
131 1 1  0.000000 111.390732 43.926163 78.787262
132 1 1  0.000000 110.716919 44.429085 80.196655
133 1 1  0.000000 111.415802 43.090225 80.707977
134 1 1  0.000000 110.495773 43.269508 81.896545
135 1 1  0.000000 110.030479 41.947502 82.003448
136 1 1  0.000000 108.630592 42.133137 82.703018
137 1 1  0.000000 107.059830 42.087566 82.664635
138 1 1  0.000000 106.007301 42.344528 83.942513
139 1 1  0.000000 105.045952 43.166557 83.012199
140 1 1  0.000000 105.799332 44.387253 82.517784
141 1 1  0.000000 104.275780 44.962955 82.333946
142 1 1  0.000000 105.368187 45.767441 81.450874
143 1 1  0.000000 106.826881 46.545547 81.487663
144 1 1  0.000000 106.018806 47.471489 80.833511
145 1 1  0.000000 105.574730 48.926403 80.680923
146 1 1  0.000000 105.570465 50.015903 81.557106
147 1 1  0.000000 104.764618 49.814327 82.943451
148 1 1  0.000000 105.225479 51.535671 83.025253
149 1 1  0.000000 105.151321 53.009785 83.385025
150 1 1  0.000000 105.143410 53.928459 84.529633
151 1 1  0.000000 104.546951 52.662289 85.181595
152 1 1  0.000000 103.969460 51.918903 86.367798
153 1 1  0.000000 102.655548 51.054501 86.193649
154 1 1  0.000000 101.351517 51.751537 86.441704
155 1 1  0.000000 100.735374 52.661980 87.572571
156 1 1  0.000000 101.693413 53.257885 88.825691
157 1 1  0.000000 101.326416 54.811005 89.564606
158 1 1  0.000000 100.861877 56.117661 89.598839
159 1 1  0.000000 99.477806 56.767456 89.908966
160 1 1  0.000000 98.703590 56.781189 88.584801
161 1 1  0.000000 97.608116 56.061817 87.822792
162 1 1  0.000000 96.950470 56.867832 86.864769
163 1 1  0.000000 95.343002 56.567799 86.786690
164 1 1  0.000000 95.043289 58.099651 86.547905
165 1 1  0.000000 94.495514 57.090153 87.272186
166 1 1  0.000000 93.215408 57.938385 87.433983
167 1 1  0.000000 91.935616 57.802654 88.399994
168 1 1  0.000000 90.838387 57.820522 87.475510
169 1 1  0.000000 91.061371 56.639324 86.360970
170 1 1  0.000000 89.780190 56.706207 86.933411
171 1 1  0.000000 90.290871 56.731739 85.362106
172 1 1  0.000000 90.469528 56.858746 83.781059
173 1 1  0.000000 90.979218 55.779499 82.541618
174 1 1  0.000000 89.657631 55.591057 81.565521
175 1 1  0.000000 88.302116 55.160416 82.385796
176 1 1  0.000000 88.653755 53.603962 82.577354
177 1 1  0.000000 87.481438 53.820084 83.535065
178 1 1  0.000000 86.076385 53.431870 84.174095
179 1 1  0.000000 86.653381 53.788651 85.625175
180 1 1  0.000000 85.343903 54.329849 84.700287
181 1 1  0.000000 84.857605 54.902569 86.235130
182 1 1  0.000000 83.766449 53.965214 86.834030
183 1 1  0.000000 83.212669 55.205784 87.751762
184 1 1  0.000000 81.861794 55.394733 87.888222
185 1 1  0.000000 80.790184 55.975376 86.958679
186 1 1  0.000000 80.689972 54.873955 85.993050
187 1 1  0.000000 79.970993 55.329155 84.665833
188 1 1  0.000000 80.063423 54.736115 83.354874
189 1 1  0.000000 78.983406 55.629177 83.634270
190 1 1  0.000000 77.907852 54.825291 82.766098
191 1 1  0.000000 76.391853 55.020638 82.923073
192 1 1  0.000000 75.468468 56.040562 83.732613
193 1 1  0.000000 73.894096 56.211987 84.316284
194 1 1  0.000000 73.168182 56.118633 82.927086
195 1 1  0.000000 72.284721 56.581425 81.877220
196 1 1  0.000000 71.157753 57.577274 82.104729
197 1 1  0.000000 70.864243 58.955261 81.219154
198 1 1  0.000000 71.255554 60.369728 80.430054
199 1 1  0.000000 70.615639 59.587135 79.497917
200 1 1  0.000000 69.400391 59.743423 80.180786
201 2 1  0.000000 119.549515 47.025429 62.559338
202 2 1  0.000000 119.066650 46.531124 64.113182
203 2 1  0.000000 119.577286 45.358009 64.935242
204 2 1  0.000000 118.617233 45.264153 66.108116
205 2 1  0.000000 119.150436 43.856739 66.085388
206 2 1  0.000000 120.512558 43.683754 67.151352
207 2 1  0.000000 122.012085 43.332439 67.423370
208 2 1  0.000000 122.498856 42.528118 68.714653
209 2 1  0.000000 122.647438 43.643967 69.813515
210 2 1  0.000000 122.379425 43.184311 71.183594
211 2 1  0.000000 121.098579 42.941067 72.051453
212 2 1  0.000000 120.692505 41.531940 72.842926
213 2 1  0.000000 120.448883 40.200661 72.317413
214 2 1  0.000000 119.158844 40.587154 71.488533
215 2 1  0.000000 118.733551 40.500408 70.021721
216 2 1  0.000000 117.566437 39.494671 69.902771
217 2 1  0.000000 117.249168 38.081730 70.350128
218 2 1  0.000000 115.718002 38.460178 69.766235
219 2 1  0.000000 114.636734 39.416073 69.275826
220 2 1  0.000000 114.464684 39.755199 67.702202
221 2 1  0.000000 113.694885 40.343109 68.993752
222 2 1  0.000000 114.371696 41.756176 69.204758
223 2 1  0.000000 113.770088 42.517342 70.405151
224 2 1  0.000000 114.758949 43.429394 71.080711
225 2 1  0.000000 113.134705 43.015114 71.269424
226 2 1  0.000000 112.132957 43.930546 72.005569
227 2 1  0.000000 111.870323 45.600986 71.971481
228 2 1  0.000000 111.601349 46.987244 71.398338
229 2 1  0.000000 110.683754 47.161961 70.251572
230 2 1  0.000000 109.384712 48.156616 69.726700
231 2 1  0.000000 108.912224 47.949493 71.055489
232 2 1  0.000000 107.654305 47.060448 70.690010
233 2 1  0.000000 107.443840 47.162769 72.123672
234 2 1  0.000000 105.949127 47.369461 72.511841
235 2 1  0.000000 104.910469 47.631245 71.413109
236 2 1  0.000000 103.583588 47.954350 71.787323
237 2 1  0.000000 102.061974 47.737141 71.243889
238 2 1  0.000000 101.030289 47.565605 72.143356
239 2 1  0.000000 101.439613 49.162910 72.631775
240 2 1  0.000000 101.080986 49.226532 74.086868
241 2 1  0.000000 99.784760 49.743038 74.445206
242 2 1  0.000000 98.621391 50.349670 73.661491
243 2 1  0.000000 98.723885 51.753807 74.339355
244 2 1  0.000000 98.649376 53.097416 74.763855
245 2 1  0.000000 97.413445 53.262146 73.869942
246 2 1  0.000000 96.661118 54.368889 74.882507
247 2 1  0.000000 95.615356 55.440208 75.483086
248 2 1  0.000000 94.626236 55.315601 76.714500
249 2 1  0.000000 93.653992 55.410049 75.544479
250 2 1  0.000000 92.734314 56.312710 74.914635
251 2 1  0.000000 91.582336 55.934078 74.056831
252 2 1  0.000000 91.367882 54.890099 75.302002
253 2 1  0.000000 90.930954 53.454880 74.944954
254 2 1  0.000000 89.685265 53.674191 75.057381
255 2 1  0.000000 88.687279 52.567635 74.904724
256 2 1  0.000000 88.223190 53.003723 76.390671
257 2 1  0.000000 88.443993 51.761955 77.467842
258 2 1  0.000000 87.480263 52.684227 78.295189
259 2 1  0.000000 86.299278 53.248116 79.175987
260 2 1  0.000000 85.142410 54.115376 79.736023
261 2 1  0.000000 83.825432 54.519657 79.460663
262 2 1  0.000000 82.784004 53.352585 79.601830
263 2 1  0.000000 81.449860 54.010452 79.921165
264 2 1  0.000000 80.721741 52.557404 79.530968
265 2 1  0.000000 79.633240 51.523891 79.343895
266 2 1  0.000000 78.427490 52.146004 78.994331
267 2 1  0.000000 77.621010 53.238255 78.820389
268 2 1  0.000000 76.753319 52.140053 78.134758
269 2 1  0.000000 75.328262 52.131229 78.626801
270 2 1  0.000000 73.933693 52.501141 78.559402
271 2 1  0.000000 73.977921 52.385643 80.043678
272 2 1  0.000000 73.154671 52.961590 81.072205
273 2 1  0.000000 72.622040 51.445389 81.097015
274 2 1  0.000000 72.256424 52.252907 82.395668
275 2 1  0.000000 70.829697 51.947102 82.773529
276 2 1  0.000000 69.832253 51.943802 83.865921
277 2 1  0.000000 70.687836 51.524635 84.766815
278 2 1  0.000000 70.688591 52.496960 86.127159
279 2 1  0.000000 69.869141 53.843998 85.960159
280 2 1  0.000000 69.316093 54.165817 87.384888
281 2 1  0.000000 67.867432 53.762699 86.834045
282 2 1  0.000000 66.579155 52.842056 86.394989
283 2 1  0.000000 65.198631 52.776463 86.459854
284 2 1  0.000000 64.511154 51.480972 86.831291
285 2 1  0.000000 63.971615 52.950256 86.270805
286 2 1  0.000000 62.611580 53.419365 86.711098
287 2 1  0.000000 61.849216 53.946735 85.372917
288 2 1  0.000000 60.684345 54.675789 85.856705
289 2 1  0.000000 59.549812 53.733833 85.217606
290 2 1  0.000000 58.009964 53.505882 85.187195
291 2 1  0.000000 58.241089 55.095119 84.653580
292 2 1  0.000000 57.733337 56.491169 84.542938
293 2 1  0.000000 56.569683 57.198658 84.068054
294 2 1  0.000000 56.804428 57.667118 85.349518
295 2 1  0.000000 55.426342 57.109776 84.788086
296 2 1  0.000000 54.279140 57.651947 85.490356
297 2 1  0.000000 54.500870 57.212181 87.158226
298 2 1  0.000000 53.413986 56.339661 87.892326
299 2 1  0.000000 52.166729 56.572014 88.801613
300 2 1  0.000000 51.947758 55.961838 87.335388
301 3 1  0.000000 39.896111 65.974648 89.929909
302 3 1  0.000000 39.479015 65.141327 91.349106
303 3 1  0.000000 38.787125 64.785698 90.227348
304 3 1  0.000000 38.373440 63.703140 90.940346
305 3 1  0.000000 38.131901 62.286819 91.851456
306 3 1  0.000000 39.445835 61.256855 92.370743
307 3 1  0.000000 40.834641 61.056946 91.826164
308 3 1  0.000000 41.625809 59.774292 91.710472
309 3 1  0.000000 42.756847 60.656296 91.742523
310 3 1  0.000000 43.519047 59.470497 92.015495
311 3 1  0.000000 44.101334 58.565510 93.240189
312 3 1  0.000000 44.980938 57.285255 92.423973
313 3 1  0.000000 45.226879 57.364666 90.772446
314 3 1  0.000000 45.038765 57.472664 89.150650
315 3 1  0.000000 45.638332 56.215958 88.474411
316 3 1  0.000000 44.655891 54.841606 88.865669
317 3 1  0.000000 45.737316 53.942898 88.286964
318 3 1  0.000000 46.880688 53.307274 89.099686
319 3 1  0.000000 46.981590 51.914570 88.464729
320 3 1  0.000000 48.395912 51.528271 88.482765
321 3 1  0.000000 49.697758 51.208572 88.792252
322 3 1  0.000000 49.695034 51.549511 87.306900
323 3 1  0.000000 51.343266 51.341736 87.186150
324 3 1  0.000000 52.476936 50.665688 86.718109
325 3 1  0.000000 53.104565 50.448891 88.015533
326 3 1  0.000000 53.024059 50.370941 89.668144
327 3 1  0.000000 52.296871 49.357548 90.859428
328 3 1  0.000000 52.431137 48.699245 92.122467
329 3 1  0.000000 50.986279 48.343872 91.585876
330 3 1  0.000000 49.444504 48.143745 91.294693
331 3 1  0.000000 48.615372 46.892399 90.536575
332 3 1  0.000000 48.421295 45.582733 90.986946
333 3 1  0.000000 49.516235 44.745014 89.984306
334 3 1  0.000000 49.962795 44.100605 88.861244
335 3 1  0.000000 51.183170 44.520210 88.044823
336 3 1  0.000000 52.316315 45.611843 88.348160
337 3 1  0.000000 53.855888 46.192520 87.717468
338 3 1  0.000000 54.996487 45.396217 88.269691
339 3 1  0.000000 55.384586 46.729469 88.755890
340 3 1  0.000000 56.291927 46.061535 89.854652
341 3 1  0.000000 55.339825 45.752220 91.110832
342 3 1  0.000000 54.874683 44.765987 92.369995
343 3 1  0.000000 53.726162 43.839890 91.528214
344 3 1  0.000000 53.141998 42.232498 91.715981
345 3 1  0.000000 52.445301 41.352142 90.635918
346 3 1  0.000000 53.071045 41.111626 89.253029
347 3 1  0.000000 53.494965 40.197327 88.173912
348 3 1  0.000000 54.456959 38.857834 87.808617
349 3 1  0.000000 55.359737 39.094635 86.704926
350 3 1  0.000000 56.325859 39.215820 85.688362
351 3 1  0.000000 55.800907 40.660080 84.818787
352 3 1  0.000000 55.377159 42.154842 84.895729
353 3 1  0.000000 56.397091 42.991131 84.393326
354 3 1  0.000000 55.731636 43.522243 83.211571
355 3 1  0.000000 54.556129 42.970116 82.398842
356 3 1  0.000000 55.484512 42.397198 81.205971
357 3 1  0.000000 54.589615 41.141914 80.920929
358 3 1  0.000000 54.917206 40.477184 79.696678
359 3 1  0.000000 56.487331 40.176105 79.941223
360 3 1  0.000000 57.560875 39.495823 79.152946
361 3 1  0.000000 58.676403 40.557701 79.248398
362 3 1  0.000000 60.250809 40.665081 79.430878
363 3 1  0.000000 60.746532 42.004234 80.013100
364 3 1  0.000000 60.487381 43.371342 80.470291
365 3 1  0.000000 59.634708 44.358643 81.200493
366 3 1  0.000000 60.338642 44.375843 82.601250
367 3 1  0.000000 59.523224 44.665775 83.791626
368 3 1  0.000000 60.526978 45.369797 84.866249
369 3 1  0.000000 60.930054 46.764473 85.629082
370 3 1  0.000000 60.207203 47.928528 85.140770
371 3 1  0.000000 58.800842 48.847927 85.088135
372 3 1  0.000000 57.880257 48.527401 83.711372
373 3 1  0.000000 58.312519 48.177402 82.417870
374 3 1  0.000000 59.091576 49.232304 81.759628
375 3 1  0.000000 59.202335 50.244072 80.557762
376 3 1  0.000000 60.185284 50.237160 81.670616
377 3 1  0.000000 61.150291 51.113403 82.256058
378 3 1  0.000000 62.506493 51.935406 81.986771
379 3 1  0.000000 63.529011 52.826714 81.485313
380 3 1  0.000000 64.924095 52.939491 81.336441
381 3 1  0.000000 64.183006 54.266785 81.962486
382 3 1  0.000000 63.788593 55.758137 82.096848
383 3 1  0.000000 63.547695 57.287655 82.650894
384 3 1  0.000000 64.728836 58.363400 83.012848
385 3 1  0.000000 63.337929 58.543877 83.563316
386 3 1  0.000000 62.150856 58.822212 84.574783
387 3 1  0.000000 62.562683 59.255814 86.135612
388 3 1  0.000000 62.075771 59.237587 87.641602
389 3 1  0.000000 62.105125 58.015896 88.635078
390 3 1  0.000000 61.671822 58.103203 90.106606
391 3 1  0.000000 60.291111 58.796730 89.906708
392 3 1  0.000000 59.857681 59.677048 91.057358
393 3 1  0.000000 59.026405 60.927509 91.504486
394 3 1  0.000000 58.404079 61.790249 92.502609
395 3 1  0.000000 59.695412 62.586365 91.914330
396 3 1  0.000000 60.699116 63.386829 92.518692
397 3 1  0.000000 62.247665 63.399151 92.940941
398 3 1  0.000000 63.646622 63.584995 92.208374
399 3 1  0.000000 63.315567 64.979240 92.058098
400 3 1  0.000000 64.703690 64.555115 92.720573
401 4 1  0.000000 64.668327 43.680855 77.191597
402 4 1  0.000000 63.472813 44.691322 77.199387
403 4 1  0.000000 64.777107 45.141224 76.479637
404 4 1  0.000000 63.218903 45.214504 76.743225
405 4 1  0.000000 62.536118 46.129627 75.681763
406 4 1  0.000000 61.961529 47.600063 76.137543
407 4 1  0.000000 62.979176 48.521767 75.385521
408 4 1  0.000000 63.542027 49.651360 76.475998
409 4 1  0.000000 63.497623 51.089085 77.321777
410 4 1  0.000000 62.329033 51.692345 76.604233
411 4 1  0.000000 60.677452 51.541302 77.122269
412 4 1  0.000000 59.558544 52.300316 77.994392
413 4 1  0.000000 59.756363 53.490517 78.132065
414 4 1  0.000000 58.991516 54.627285 77.693184
415 4 1  0.000000 60.317989 54.658943 78.407951
416 4 1  0.000000 60.415970 55.885857 79.412216
417 4 1  0.000000 60.258015 57.292908 79.996834
418 4 1  0.000000 61.383751 58.424019 79.742180
419 4 1  0.000000 62.344280 59.341988 78.844017
420 4 1  0.000000 63.837170 58.808571 79.314758
421 4 1  0.000000 64.717232 57.607105 78.427498
422 4 1  0.000000 65.492813 58.403355 77.414757
423 4 1  0.000000 65.266174 58.216476 75.892494
424 4 1  0.000000 63.815971 57.881157 75.322899
425 4 1  0.000000 63.273006 59.429111 75.091736
426 4 1  0.000000 63.223911 61.015469 75.308907
427 4 1  0.000000 63.451481 62.251179 74.516251
428 4 1  0.000000 64.926582 62.315945 74.409355
429 4 1  0.000000 66.483849 62.338146 74.160355
430 4 1  0.000000 67.798500 62.466179 75.074631
431 4 1  0.000000 67.936882 62.912128 76.582199
432 4 1  0.000000 68.183266 62.297649 77.737518
433 4 1  0.000000 66.869843 61.820503 78.680870
434 4 1  0.000000 66.158585 61.955467 79.872086
435 4 1  0.000000 65.757507 63.023193 80.961273
436 4 1  0.000000 65.005806 62.513252 82.350639
437 4 1  0.000000 64.243126 62.310089 83.589516
438 4 1  0.000000 64.003220 62.309685 85.277649
439 4 1  0.000000 65.470863 61.822407 85.103935
440 4 1  0.000000 66.721405 62.160694 86.208122
441 4 1  0.000000 66.026230 60.980125 86.900772
442 4 1  0.000000 65.764153 59.444042 87.204391
443 4 1  0.000000 65.636932 59.551659 88.890068
444 4 1  0.000000 66.204849 58.936420 90.061295
445 4 1  0.000000 65.405106 60.239452 90.441429
446 4 1  0.000000 66.493584 60.980690 91.191078
447 4 1  0.000000 67.876381 61.146988 91.329269
448 4 1  0.000000 67.969803 62.455860 90.417625
449 4 1  0.000000 67.732338 63.887455 89.632889
450 4 1  0.000000 67.173019 65.301788 89.392273
451 4 1  0.000000 66.436195 66.473099 88.817551
452 4 1  0.000000 66.071762 67.197990 87.414185
453 4 1  0.000000 66.979111 67.135239 86.394691
454 4 1  0.000000 66.418030 68.701492 86.461632
455 4 1  0.000000 65.033241 68.844864 85.785606
456 4 1  0.000000 64.309135 68.970879 84.230324
457 4 1  0.000000 63.067520 70.078529 84.434273
458 4 1  0.000000 62.192986 68.747711 84.654663
459 4 1  0.000000 61.311977 69.639076 85.556290
460 4 1  0.000000 60.472164 70.885780 85.862740
461 4 1  0.000000 58.763420 71.114761 86.068932
462 4 1  0.000000 59.154610 71.953125 84.900200
463 4 1  0.000000 57.714729 72.285797 85.288383
464 4 1  0.000000 56.816105 73.045448 84.049347
465 4 1  0.000000 55.589001 72.461838 84.493042
466 4 1  0.000000 55.318462 72.965569 82.906372
467 4 1  0.000000 54.985195 71.256516 83.179085
468 4 1  0.000000 55.449001 69.968575 82.296402
469 4 1  0.000000 54.869869 69.873032 80.647491
470 4 1  0.000000 55.633766 68.831459 81.322838
471 4 1  0.000000 56.979729 68.059708 81.281067
472 4 1  0.000000 56.560322 66.528908 81.269455
473 4 1  0.000000 55.728363 65.515625 82.211273
474 4 1  0.000000 54.585220 64.672050 81.669136
475 4 1  0.000000 53.273052 64.337387 82.175255
476 4 1  0.000000 52.309711 63.223541 82.652122
477 4 1  0.000000 53.186417 62.177341 83.207283
478 4 1  0.000000 52.211525 61.554993 84.264862
479 4 1  0.000000 50.799816 61.583611 84.930618
480 4 1  0.000000 50.658855 62.210915 86.026703
481 4 1  0.000000 50.977081 63.365894 87.060318
482 4 1  0.000000 50.407841 63.516186 88.557335
483 4 1  0.000000 49.555599 62.263550 89.215034
484 4 1  0.000000 49.474323 60.721203 89.280022
485 4 1  0.000000 50.263496 59.909580 90.305115
486 4 1  0.000000 50.617653 59.969700 91.851509
487 4 1  0.000000 52.144646 60.560932 92.151581
488 4 1  0.000000 51.490669 61.892960 92.321907
489 4 1  0.000000 50.450066 63.095234 92.563957
490 4 1  0.000000 49.208221 63.775776 93.112953
491 4 1  0.000000 48.331165 62.580437 92.806229
492 4 1  0.000000 47.759991 62.769806 94.181221
493 4 1  0.000000 46.705021 64.080544 94.165550
494 4 1  0.000000 45.584675 63.203762 94.833405
495 4 1  0.000000 45.423901 64.009285 96.343575
496 4 1  0.000000 44.154160 65.105965 96.148224
497 4 1  0.000000 43.333061 63.953888 97.170952
498 4 1  0.000000 42.098873 65.040169 97.675591
499 4 1  0.000000 40.885704 65.515450 97.525734
500 4 1  0.000000 40.524567 64.382278 98.269119
501 5 1  0.000000 117.828445 84.405655 80.193794
502 5 1  0.000000 116.838844 85.480568 80.224060
503 5 1  0.000000 117.661690 86.281097 79.285172
504 5 1  0.000000 118.220406 85.721519 78.085953
505 5 1  0.000000 118.333832 86.173225 76.607460
506 5 1  0.000000 119.924278 86.179710 76.486618
507 5 1  0.000000 119.301796 86.863640 75.229057
508 5 1  0.000000 120.552216 87.814720 74.835121
509 5 1  0.000000 121.591187 87.471992 73.725044
510 5 1  0.000000 123.130737 88.128326 73.258003
511 5 1  0.000000 124.515152 87.690125 74.143768
512 5 1  0.000000 125.742508 88.410194 74.431000
513 5 1  0.000000 125.237206 88.281471 76.076309
514 5 1  0.000000 124.482300 87.914948 77.457230
515 5 1  0.000000 125.741379 87.244331 78.272224
516 5 1  0.000000 125.401192 85.987183 78.601883
517 5 1  0.000000 124.214981 86.292892 79.411560
518 5 1  0.000000 123.408630 85.522789 80.519814
519 5 1  0.000000 122.108086 85.178833 81.068771
520 5 1  0.000000 122.224312 84.589020 79.579536
521 5 1  0.000000 122.077820 83.254898 78.446068
522 5 1  0.000000 122.504196 81.838272 78.961525
523 5 1  0.000000 121.363312 82.318771 78.079704
524 5 1  0.000000 120.155602 81.256638 78.079239
525 5 1  0.000000 119.101227 81.383728 76.909653
526 5 1  0.000000 117.991913 81.027420 77.735596
527 5 1  0.000000 116.741959 80.943855 78.624870
528 5 1  0.000000 115.155937 81.486221 78.992111
529 5 1  0.000000 114.224998 82.824898 78.789856
530 5 1  0.000000 114.561058 82.908989 77.417282
531 5 1  0.000000 113.078117 82.047310 77.182304
532 5 1  0.000000 111.881081 80.996010 76.726166
533 5 1  0.000000 111.960495 79.751579 77.306114
534 5 1  0.000000 111.524811 79.197159 78.640686
535 5 1  0.000000 112.635681 78.121735 79.011353
536 5 1  0.000000 111.834641 77.964729 80.261749
537 5 1  0.000000 111.468651 77.073120 81.570038
538 5 1  0.000000 111.881882 76.142906 82.798546
539 5 1  0.000000 111.749947 74.999870 83.525146
540 5 1  0.000000 112.525772 73.860161 82.462944
541 5 1  0.000000 111.453758 73.473289 81.188438
542 5 1  0.000000 110.047920 72.882912 81.068329
543 5 1  0.000000 109.057571 72.347557 82.292030
544 5 1  0.000000 108.542122 72.653275 80.916664
545 5 1  0.000000 107.110649 73.485497 80.932335
546 5 1  0.000000 106.122147 72.368744 81.514519
547 5 1  0.000000 104.685303 73.250885 81.068794
548 5 1  0.000000 103.322052 73.708626 80.824722
549 5 1  0.000000 102.438812 74.311913 81.755104
550 5 1  0.000000 102.136261 75.250031 83.191818
551 5 1  0.000000 101.135704 76.473679 83.494881
552 5 1  0.000000 101.168579 77.758263 83.807335
553 5 1  0.000000 100.163452 78.748840 83.179344
554 5 1  0.000000 100.144257 79.338188 84.613297
555 5 1  0.000000 98.966080 80.228798 84.916527
556 5 1  0.000000 98.044701 79.683548 86.071045
557 5 1  0.000000 97.416786 79.778191 87.709641
558 5 1  0.000000 96.569496 79.619331 86.076660
559 5 1  0.000000 95.806335 80.866074 85.945442
560 5 1  0.000000 94.132446 80.973709 85.444908
561 5 1  0.000000 93.037315 80.445107 86.288971
562 5 1  0.000000 93.199776 81.858360 86.701889
563 5 1  0.000000 93.067802 82.625687 87.907562
564 5 1  0.000000 91.566879 82.996834 88.367836
565 5 1  0.000000 91.825813 84.093674 89.448875
566 5 1  0.000000 92.526268 85.351143 89.291374
567 5 1  0.000000 91.267448 85.881416 88.534088
568 5 1  0.000000 90.340317 86.703072 89.265694
569 5 1  0.000000 89.616920 88.218391 89.069580
570 5 1  0.000000 88.462036 88.038605 87.945198
571 5 1  0.000000 87.844589 89.301903 88.670189
572 5 1  0.000000 86.682533 88.964447 87.478485
573 5 1  0.000000 85.240685 89.278709 86.744553
574 5 1  0.000000 84.662468 89.482147 88.040916
575 5 1  0.000000 83.696449 88.251587 87.567337
576 5 1  0.000000 82.205124 88.210861 88.233376
577 5 1  0.000000 80.874672 89.588669 88.239838
578 5 1  0.000000 79.408463 89.778389 88.654999
579 5 1  0.000000 78.074684 89.352631 89.214745
580 5 1  0.000000 77.507103 90.772552 89.018082
581 5 1  0.000000 77.941032 90.584312 90.422577
582 5 1  0.000000 77.119110 90.461494 91.762878
583 5 1  0.000000 77.375267 89.953293 93.058395
584 5 1  0.000000 75.895920 89.405182 92.784363
585 5 1  0.000000 76.460091 88.944107 94.055870
586 5 1  0.000000 75.383377 88.744385 95.136513
587 5 1  0.000000 74.699982 87.418312 94.697151
588 5 1  0.000000 73.940781 85.959740 94.718040
589 5 1  0.000000 73.023376 87.144112 94.241508
590 5 1  0.000000 73.220497 85.898422 93.285782
591 5 1  0.000000 71.930428 85.082581 92.661575
592 5 1  0.000000 71.864845 85.276527 90.976707
593 5 1  0.000000 72.877472 84.080193 90.961555
594 5 1  0.000000 73.450066 85.067215 89.807800
595 5 1  0.000000 73.854111 85.498657 88.416557
596 5 1  0.000000 72.502144 86.448036 88.036804
597 5 1  0.000000 72.833878 88.011078 88.203217
598 5 1  0.000000 73.370148 89.077751 89.171799
599 5 1  0.000000 72.213348 90.008606 89.419495
600 5 1  0.000000 73.617126 89.760941 89.789627
601 6 1  0.000000 104.445923 118.453484 80.025032
602 6 1  0.000000 103.456741 117.751617 81.123207
603 6 1  0.000000 102.783333 116.293617 81.221718
604 6 1  0.000000 101.785965 117.458984 81.328773
605 6 1  0.000000 100.125031 117.721565 80.596931
606 6 1  0.000000 99.185249 116.916161 81.392517
607 6 1  0.000000 98.184479 115.925011 80.942963
608 6 1  0.000000 97.901199 116.711777 82.230164
609 6 1  0.000000 97.146591 117.994255 82.481415
610 6 1  0.000000 95.903442 119.065956 82.917641
611 6 1  0.000000 94.841408 119.573532 82.169991
612 6 1  0.000000 95.389503 120.312698 80.808456
613 6 1  0.000000 93.908218 120.783615 80.092445
614 6 1  0.000000 93.548149 120.041008 78.822052