Created with TaichiMD

1000 atoms
990 bonds
  0 angles
  0 dihedrals
  0 impropers

1 atom types
1 bond types
0 angle types
0 dihedral types
0 improper types

-80.00000  80.00000 xlo xhi
-80.00000  80.00000 ylo yhi
-80.00000  80.00000 zlo zhi

Masses

1 10.0000

Atoms

  1 0 1  0.000000 36.989697  6.918801 89.566681
  2 0 1  0.000000 36.520641  6.848453 88.390800
  3 0 1  0.000000 35.972889  6.478146 89.845856
  4 0 1  0.000000 35.474163  8.064606 90.185555
  5 0 1  0.000000 34.635353  9.372178 89.241821
  6 0 1  0.000000 35.826027 10.472950 88.467834
  7 0 1  0.000000 37.264336 11.012672 87.518417
  8 0 1  0.000000 36.487118 11.161537 85.865845
  9 0 1  0.000000 37.910866 11.375047 85.609062
 10 0 1  0.000000 39.042553 12.269808 85.156738
 11 0 1  0.000000 39.748333 13.761875 84.776054
 12 0 1  0.000000 40.381535 15.164961 84.559959
 13 0 1  0.000000 42.058380 14.261307 84.019478
 14 0 1  0.000000 40.982273 15.696980 83.045044
 15 0 1  0.000000 41.233780 16.671659 82.131500
 16 0 1  0.000000 42.385902 15.776178 81.893959
 17 0 1  0.000000 43.345886 15.625751 80.324371
 18 0 1  0.000000 44.367477 16.415251 81.109520
 19 0 1  0.000000 45.665329 16.462898 81.380363
 20 0 1  0.000000 45.846176 17.619967 82.454155
 21 0 1  0.000000 46.744869 18.220827 82.705978
 22 0 1  0.000000 48.602200 18.889961 83.395073
 23 0 1  0.000000 48.000404 19.141207 82.214050
 24 0 1  0.000000 49.570332 18.721378 82.567848
 25 0 1  0.000000 49.842751 19.460878 81.124252
 26 0 1  0.000000 51.175476 19.993401 80.984474
 27 0 1  0.000000 51.951096 21.121532 81.812599
 28 0 1  0.000000 52.752209 19.821165 82.803009
 29 0 1  0.000000 53.981529 20.044720 82.658142
 30 0 1  0.000000 54.661060 20.017572 83.634361
 31 0 1  0.000000 56.341312 20.579546 83.757454
 32 0 1  0.000000 57.051941 19.519369 82.786659
 33 0 1  0.000000 57.968025 19.026146 81.249321
 34 0 1  0.000000 59.245899 17.632551 82.579208
 35 0 1  0.000000 60.979748 17.579367 82.446953
 36 0 1  0.000000 62.830032 17.807093 82.998604
 37 0 1  0.000000 64.256584 17.176498 82.691162
 38 0 1  0.000000 64.188049 19.117046 82.839455
 39 0 1  0.000000 65.190948 20.149466 82.676079
 40 0 1  0.000000 66.661087 20.152300 81.908905
 41 0 1  0.000000 68.565475 19.442650 81.824501
 42 0 1  0.000000 69.083183 20.223701 82.966942
 43 0 1  0.000000 70.182022 21.382343 84.090622
 44 0 1  0.000000 71.631516 21.391510 84.343452
 45 0 1  0.000000 72.851562 20.088715 84.336830
 46 0 1  0.000000 74.260773 19.657816 83.856171
 47 0 1  0.000000 74.845528 20.196377 84.929436
 48 0 1  0.000000 76.393799 20.172056 84.330208
 49 0 1  0.000000 78.040428 20.083872 83.377502
 50 0 1  0.000000 79.873253 20.737738 84.369507
 51 0 1  0.000000 81.406906 20.471863 83.840118
 52 0 1  0.000000 83.115929 21.672125 84.719742
 53 0 1  0.000000 83.996658 22.657429 84.876663
 54 0 1  0.000000 85.479263 22.432043 83.799065
 55 0 1  0.000000 86.594429 22.256392 82.559685
 56 0 1  0.000000 87.944664 21.942459 82.186432
 57 0 1  0.000000 89.591118 20.589985 82.434639
 58 0 1  0.000000 89.719925 18.915419 83.232712
 59 0 1  0.000000 90.799080 18.244926 82.937027
 60 0 1  0.000000 91.677834 19.392349 84.081741
 61 0 1  0.000000 93.292633 19.158377 83.524292
 62 0 1  0.000000 95.100273 19.395353 83.271790
 63 0 1  0.000000 96.530548 20.270632 82.955742
 64 0 1  0.000000 96.820343 20.450247 84.187569
 65 0 1  0.000000 98.520615 21.114780 84.186020
 66 0 1  0.000000 99.641014 21.127625 82.821930
 67 0 1  0.000000 100.702675 20.858173 82.670258
 68 0 1  0.000000 101.135971 19.456503 83.550781
 69 0 1  0.000000 102.342697 19.897951 85.304726
 70 0 1  0.000000 103.678940 20.187929 86.521736
 71 0 1  0.000000 104.929062 18.834782 86.959023
 72 0 1  0.000000 105.267296 20.175282 87.257210
 73 0 1  0.000000 106.664192 20.922338 87.509888
 74 0 1  0.000000 107.403564 19.655401 88.207359
 75 0 1  0.000000 108.490906 19.646347 89.731453
 76 0 1  0.000000 110.200310 20.237730 90.763672
 77 0 1  0.000000 111.426041 19.613668 89.355125
 78 0 1  0.000000 113.141190 20.220858 88.473236
 79 0 1  0.000000 114.471786 19.658457 87.801514
 80 0 1  0.000000 115.991638 20.642321 87.477539
 81 0 1  0.000000 117.596046 19.838003 88.213341
 82 0 1  0.000000 117.603294 20.878246 88.915115
 83 0 1  0.000000 117.626732 22.056238 88.426041
 84 0 1  0.000000 117.651886 23.327822 89.538208
 85 0 1  0.000000 118.074081 24.846182 90.015892
 86 0 1  0.000000 118.095444 26.483900 90.045227
 87 0 1  0.000000 119.255112 25.966436 91.012009
 88 0 1  0.000000 119.259346 26.941824 92.422539
 89 0 1  0.000000 120.469879 25.617821 92.856140
 90 0 1  0.000000 122.010162 25.490738 92.717026
 91 0 1  0.000000 123.094330 24.677273 92.635757
 92 0 1  0.000000 124.174278 24.404146 91.505173
 93 0 1  0.000000 125.630646 24.288088 90.732475
 94 0 1  0.000000 125.914284 24.654413 89.042480
 95 0 1  0.000000 127.764580 24.351904 88.441048
 96 0 1  0.000000 128.450485 24.440697 89.760933
 97 0 1  0.000000 129.719650 23.978323 89.274132
 98 0 1  0.000000 128.700623 22.475744 89.943367
 99 0 1  0.000000 129.769470 22.414351 91.473946
100 0 1  0.000000 128.896835 21.288809 90.859924
101 1 1  0.000000 47.194988 33.709949 82.876892
102 1 1  0.000000 45.378391 34.025227 83.190620
103 1 1  0.000000 44.628616 34.221405 84.492264
104 1 1  0.000000 45.820366 34.173740 83.410309
105 1 1  0.000000 45.053066 33.638767 85.155563
106 1 1  0.000000 44.043468 34.206783 86.518967
107 1 1  0.000000 44.665718 33.377804 87.933960
108 1 1  0.000000 45.960728 33.052578 88.402527
109 1 1  0.000000 45.605759 32.185230 88.420822
110 1 1  0.000000 46.435581 30.945190 89.063377
111 1 1  0.000000 44.985291 30.253500 89.141869
112 1 1  0.000000 45.883011 30.405792 90.648308
113 1 1  0.000000 46.620281 29.785843 91.160103
114 1 1  0.000000 48.316257 30.084681 91.109200
115 1 1  0.000000 49.449409 29.658354 90.886246
116 1 1  0.000000 50.809464 29.590157 89.845573
117 1 1  0.000000 49.985020 31.229233 90.515549
118 1 1  0.000000 49.707748 32.039761 88.988960
119 1 1  0.000000 49.829536 32.762424 87.574379
120 1 1  0.000000 50.562119 33.307285 86.024696
121 1 1  0.000000 50.833214 32.585712 85.120636
122 1 1  0.000000 52.219933 32.590172 85.347305
123 1 1  0.000000 51.513645 33.096893 83.797348
124 1 1  0.000000 52.821171 32.263138 83.677116
125 1 1  0.000000 53.977772 31.915623 82.402176
126 1 1  0.000000 55.057537 32.729019 82.679642
127 1 1  0.000000 57.117157 33.321354 83.175545
128 1 1  0.000000 57.319077 34.737785 83.444473
129 1 1  0.000000 58.693684 34.025787 82.885941
130 1 1  0.000000 59.762794 34.217861 81.320450
131 1 1  0.000000 60.738277 33.778397 82.071770
132 1 1  0.000000 61.494907 35.184738 81.636047
133 1 1  0.000000 62.497169 34.335117 81.673721
134 1 1  0.000000 63.937767 33.855469 80.694191
135 1 1  0.000000 63.966110 34.977955 80.749458
136 1 1  0.000000 65.077827 34.050522 80.128288
137 1 1  0.000000 66.603287 33.911697 80.443008
138 1 1  0.000000 68.372215 34.112461 81.119072
139 1 1  0.000000 69.742172 34.717442 80.654716
140 1 1  0.000000 70.028809 33.646030 81.954651
141 1 1  0.000000 71.198708 32.940571 83.039978
142 1 1  0.000000 71.990341 34.044891 83.799194
143 1 1  0.000000 73.306335 34.958466 83.572365
144 1 1  0.000000 74.982559 35.604321 83.648430
145 1 1  0.000000 76.920273 35.767189 83.028816
146 1 1  0.000000 77.879951 36.956829 82.271301
147 1 1  0.000000 79.681900 36.848454 82.218758
148 1 1  0.000000 81.002548 37.445595 82.124062
149 1 1  0.000000 81.865051 37.997807 81.026474
150 1 1  0.000000 83.455482 38.263329 81.830879
151 1 1  0.000000 85.051117 38.021061 81.213547
152 1 1  0.000000 86.348213 37.522167 80.148384
153 1 1  0.000000 87.740707 36.833969 79.307640
154 1 1  0.000000 88.696587 37.277672 80.537933
155 1 1  0.000000 90.221863 37.201748 81.217873
156 1 1  0.000000 91.459717 37.680840 80.600677
157 1 1  0.000000 92.903519 38.025787 79.319466
158 1 1  0.000000 93.023232 38.777412 78.519699
159 1 1  0.000000 95.085190 39.024666 78.091888
160 1 1  0.000000 95.556709 37.289341 78.599518
161 1 1  0.000000 95.855530 38.454704 77.265175
162 1 1  0.000000 97.181786 39.311993 77.182480
163 1 1  0.000000 98.475388 38.152386 76.190407
164 1 1  0.000000 98.601982 37.094761 76.482971
165 1 1  0.000000 99.547928 36.157112 77.251175
166 1 1  0.000000 101.398117 36.856113 78.168976
167 1 1  0.000000 102.356430 37.626419 78.766998
168 1 1  0.000000 101.965836 37.946976 80.171585
169 1 1  0.000000 101.250252 38.179092 81.832092
170 1 1  0.000000 102.580322 38.394245 82.995384
171 1 1  0.000000 104.422058 37.910774 82.050301
172 1 1  0.000000 105.750000 37.097000 81.517990
173 1 1  0.000000 107.015724 37.831345 81.814949
174 1 1  0.000000 107.537964 38.944756 81.825737
175 1 1  0.000000 108.754837 38.975769 80.914688
176 1 1  0.000000 110.096123 40.330894 79.895027
177 1 1  0.000000 111.485817 40.025982 81.158134
178 1 1  0.000000 112.184525 39.021801 80.385376
179 1 1  0.000000 112.974274 40.394772 79.144295
180 1 1  0.000000 114.296600 39.862015 79.712479
181 1 1  0.000000 116.168732 38.335072 79.315445
182 1 1  0.000000 116.680145 37.917080 78.106285
183 1 1  0.000000 118.032379 37.371006 77.303108
184 1 1  0.000000 118.063248 35.356770 77.779602
185 1 1  0.000000 119.337242 36.120628 79.132431
186 1 1  0.000000 120.291557 35.792553 77.933868
187 1 1  0.000000 121.157082 37.011726 79.560219
188 1 1  0.000000 121.689514 38.913372 78.783905
189 1 1  0.000000 120.990036 39.809681 78.886765
190 1 1  0.000000 122.141647 40.082581 78.621048
191 1 1  0.000000 123.716461 39.140278 79.426659
192 1 1  0.000000 124.563042 40.089779 78.059593
193 1 1  0.000000 124.613564 39.022827 76.825653
194 1 1  0.000000 126.303047 39.286518 75.911049
195 1 1  0.000000 125.468033 40.070950 75.932487
196 1 1  0.000000 126.812469 39.489433 75.407890
197 1 1  0.000000 128.226517 40.694252 75.926491
198 1 1  0.000000 128.600769 41.909374 75.824600
199 1 1  0.000000 128.951416 42.942364 77.157959
200 1 1  0.000000 130.492142 41.728573 77.128029
201 2 1  0.000000 21.594931 51.661549 69.081329
202 2 1  0.000000 22.181202 53.430592 68.319084
203 2 1  0.000000 23.529234 52.741131 67.976761
204 2 1  0.000000 24.501534 51.791061 66.978516
205 2 1  0.000000 25.663862 52.681129 67.978554
206 2 1  0.000000 27.248287 53.934494 67.812027
207 2 1  0.000000 27.084192 54.436871 69.527359
208 2 1  0.000000 28.470144 55.098186 70.223427
209 2 1  0.000000 29.246660 54.015217 69.417770
210 2 1  0.000000 30.408646 53.797523 69.090897
211 2 1  0.000000 31.485367 52.590916 69.925377
212 2 1  0.000000 33.091171 52.282536 69.933189
213 2 1  0.000000 34.999565 52.660282 70.373703
214 2 1  0.000000 34.857735 51.293598 70.758095
215 2 1  0.000000 36.192135 50.845463 70.976730
216 2 1  0.000000 36.657234 49.898224 69.139694
217 2 1  0.000000 37.249809 48.609516 70.069038
218 2 1  0.000000 38.162895 47.769848 70.805656
219 2 1  0.000000 39.756310 48.525620 71.178780
220 2 1  0.000000 40.916676 47.917809 70.351257
221 2 1  0.000000 42.272720 47.103722 70.668732
222 2 1  0.000000 43.520588 47.092873 71.943634
223 2 1  0.000000 44.509602 48.464596 71.512344
224 2 1  0.000000 45.390064 47.850601 72.276291
225 2 1  0.000000 47.182930 47.428295 72.726746
226 2 1  0.000000 48.537853 47.537659 71.467720
227 2 1  0.000000 49.068119 46.313229 70.161758
228 2 1  0.000000 50.602352 46.124355 70.760071
229 2 1  0.000000 52.635067 46.087082 71.121246
230 2 1  0.000000 52.995995 47.719849 70.484932
231 2 1  0.000000 54.166546 47.222683 69.655159
232 2 1  0.000000 55.804451 48.311386 68.848236
233 2 1  0.000000 56.037865 47.704170 70.779861
234 2 1  0.000000 56.689209 46.724606 71.375778
235 2 1  0.000000 57.656666 47.939323 72.152481
236 2 1  0.000000 59.174747 48.460159 72.020409
237 2 1  0.000000 60.850159 48.767292 71.086769
238 2 1  0.000000 61.863373 47.678608 70.028160
239 2 1  0.000000 62.951302 48.203804 71.537682
240 2 1  0.000000 63.679718 48.362225 72.645386
241 2 1  0.000000 65.094215 47.627571 73.603813
242 2 1  0.000000 66.551239 48.035454 74.244583
243 2 1  0.000000 67.489288 49.812473 73.682983
244 2 1  0.000000 69.029495 48.714054 72.743195
245 2 1  0.000000 70.405418 49.385025 73.331200
246 2 1  0.000000 71.267258 49.442429 74.886475
247 2 1  0.000000 72.947777 49.825481 75.443069
248 2 1  0.000000 74.587784 50.707607 75.079964
249 2 1  0.000000 76.008720 50.908039 75.838959
250 2 1  0.000000 76.971748 49.458099 74.802162
251 2 1  0.000000 78.468414 49.630348 75.640594
252 2 1  0.000000 80.032455 49.097126 75.675652
253 2 1  0.000000 81.911049 48.548370 75.875504
254 2 1  0.000000 82.620461 46.478786 76.448097
255 2 1  0.000000 84.381935 46.186535 76.233780
256 2 1  0.000000 85.234314 45.596333 77.185661
257 2 1  0.000000 86.561073 46.361202 76.295181
258 2 1  0.000000 88.122498 45.770847 75.866165
259 2 1  0.000000 89.518555 45.400993 75.877022
260 2 1  0.000000 91.355118 45.593372 75.796585
261 2 1  0.000000 92.552483 46.619610 76.238907
262 2 1  0.000000 93.559196 47.392921 77.067703
263 2 1  0.000000 95.143623 46.923153 76.286926
264 2 1  0.000000 96.415657 46.569336 75.745964
265 2 1  0.000000 97.327065 45.729031 76.807274
266 2 1  0.000000 98.571793 46.673779 77.219299
267 2 1  0.000000 99.191048 45.336323 76.455284
268 2 1  0.000000 99.918800 44.161449 76.503128
269 2 1  0.000000 101.325638 45.170094 76.924545
270 2 1  0.000000 102.910751 45.789875 77.949394
271 2 1  0.000000 104.593636 46.206566 78.598503
272 2 1  0.000000 105.763031 45.501896 78.134544
273 2 1  0.000000 106.570488 45.701946 76.837387
274 2 1  0.000000 107.913422 45.096474 76.533386
275 2 1  0.000000 108.698982 45.876556 77.763878
276 2 1  0.000000 110.271347 46.150555 78.425819
277 2 1  0.000000 111.653114 46.702488 77.017868
278 2 1  0.000000 113.223389 47.275074 77.719757
279 2 1  0.000000 113.677979 46.027008 78.474655
280 2 1  0.000000 115.223579 46.320061 78.957832
281 2 1  0.000000 117.110802 46.508595 78.018234
282 2 1  0.000000 117.293915 45.654232 78.825050
283 2 1  0.000000 117.628525 47.306004 77.919579
284 2 1  0.000000 119.186188 46.996799 78.242371
285 2 1  0.000000 120.173508 46.618771 79.551125
286 2 1  0.000000 120.241089 45.641933 81.263718
287 2 1  0.000000 121.671570 45.052502 82.306129
288 2 1  0.000000 122.122429 45.645565 83.879120
289 2 1  0.000000 123.852837 45.516243 83.890335
290 2 1  0.000000 123.551590 45.108925 85.327843
291 2 1  0.000000 123.388428 46.000778 86.296219
292 2 1  0.000000 123.478607 46.164856 87.679718
293 2 1  0.000000 124.393379 45.549545 87.755417
294 2 1  0.000000 125.107834 44.100685 88.385117
295 2 1  0.000000 125.006927 42.793812 89.475266
296 2 1  0.000000 126.678200 42.452778 89.948669
297 2 1  0.000000 127.320999 40.905209 89.426857
298 2 1  0.000000 127.716881 40.156010 90.880600
299 2 1  0.000000 127.717499 39.006062 90.184258
300 2 1  0.000000 127.890388 37.980515 90.955620
301 3 1  0.000000 36.737858 63.607502 95.859367
302 3 1  0.000000 38.130112 63.930332 96.648193
303 3 1  0.000000 39.540352 62.715153 96.496819
304 3 1  0.000000 41.442879 61.553238 96.963745
305 3 1  0.000000 43.067192 61.952751 98.107430
306 3 1  0.000000 42.256878 61.333969 97.164642
307 3 1  0.000000 43.407032 61.836563 96.485138
308 3 1  0.000000 44.338467 61.843449 95.624298
309 3 1  0.000000 44.853558 61.091042 94.323936
310 3 1  0.000000 45.340694 60.335732 93.178505
311 3 1  0.000000 46.228039 60.441216 92.570511
312 3 1  0.000000 46.857841 58.796898 91.716034
313 3 1  0.000000 46.753727 59.934265 90.654510
314 3 1  0.000000 48.210751 60.204330 90.045128
315 3 1  0.000000 49.068630 59.481659 88.490540
316 3 1  0.000000 49.926903 59.289242 87.357498
317 3 1  0.000000 49.755539 60.535995 87.077972
318 3 1  0.000000 50.518208 61.776714 86.799461
319 3 1  0.000000 50.420433 61.847420 85.132751
320 3 1  0.000000 49.723701 60.970943 83.716179
321 3 1  0.000000 50.243595 59.682320 83.054955
322 3 1  0.000000 51.720772 60.703926 83.224464
323 3 1  0.000000 53.243721 61.194332 83.287430
324 3 1  0.000000 53.639812 62.479134 81.940292
325 3 1  0.000000 54.502625 62.586452 80.428329
326 3 1  0.000000 55.852970 62.135056 81.054466
327 3 1  0.000000 56.922035 63.332298 81.250244
328 3 1  0.000000 57.941132 62.112720 81.327446
329 3 1  0.000000 58.387085 63.442715 82.047249
330 3 1  0.000000 59.379696 62.613918 82.658340
331 3 1  0.000000 60.348282 62.257835 81.547653
332 3 1  0.000000 61.531429 62.264782 82.256020
333 3 1  0.000000 61.902229 62.322578 83.887054
334 3 1  0.000000 63.177059 61.560150 83.986809
335 3 1  0.000000 64.214584 63.290657 83.038902
336 3 1  0.000000 65.924095 62.618111 81.789764
337 3 1  0.000000 67.224251 61.505497 81.073822
338 3 1  0.000000 67.906830 61.732559 82.782089
339 3 1  0.000000 69.435593 61.448849 82.187164
340 3 1  0.000000 69.523735 59.628334 82.805794
341 3 1  0.000000 71.236847 60.162151 82.479691
342 3 1  0.000000 72.351067 59.329304 81.231590
343 3 1  0.000000 72.683502 58.825466 82.447685
344 3 1  0.000000 74.042198 59.800636 81.824898
345 3 1  0.000000 75.602852 59.556080 81.847900
346 3 1  0.000000 77.431801 59.567226 81.533379
347 3 1  0.000000 78.910347 58.820671 82.162544
348 3 1  0.000000 79.613945 60.001850 83.245750
349 3 1  0.000000 80.760498 60.958347 83.759918
350 3 1  0.000000 82.275490 60.586754 83.984459
351 3 1  0.000000 83.583427 60.593899 83.520439
352 3 1  0.000000 84.730133 59.596550 83.766136
353 3 1  0.000000 86.332336 59.472511 84.054443
354 3 1  0.000000 87.692986 59.841393 83.220337
355 3 1  0.000000 89.060371 60.171833 82.383347
356 3 1  0.000000 90.731476 60.997177 81.910095
357 3 1  0.000000 92.126938 61.201096 80.590393
358 3 1  0.000000 93.490166 60.614086 80.544495
359 3 1  0.000000 93.953339 61.754417 81.393608
360 3 1  0.000000 95.505493 61.548096 81.651779
361 3 1  0.000000 96.886909 61.597095 80.812218
362 3 1  0.000000 97.735695 62.470928 81.298302
363 3 1  0.000000 99.226936 63.164375 81.661514
364 3 1  0.000000 100.443687 62.974789 82.161545
365 3 1  0.000000 100.620193 62.057175 83.591293
366 3 1  0.000000 101.536278 60.940033 84.140610
367 3 1  0.000000 102.090553 61.595291 82.638695
368 3 1  0.000000 103.921799 60.894779 82.828201
369 3 1  0.000000 105.285271 61.689697 83.538712
370 3 1  0.000000 105.762207 63.027782 83.825897
371 3 1  0.000000 106.048180 61.716305 84.903427
372 3 1  0.000000 107.407494 61.084343 84.875496
373 3 1  0.000000 109.105591 61.451866 85.741058
374 3 1  0.000000 110.375977 61.446297 87.108131
375 3 1  0.000000 111.244789 60.525410 87.968018
376 3 1  0.000000 110.564255 60.134682 87.422012
377 3 1  0.000000 110.635147 60.435368 89.169319
378 3 1  0.000000 111.354691 61.494400 90.389275
379 3 1  0.000000 112.172127 62.452541 90.835724
380 3 1  0.000000 113.425346 63.484051 89.840477
381 3 1  0.000000 114.676208 63.249516 89.610634
382 3 1  0.000000 115.070145 62.990303 88.023827
383 3 1  0.000000 116.338440 61.900639 88.997688
384 3 1  0.000000 117.093056 62.707397 88.393524
385 3 1  0.000000 118.396889 62.005749 88.671074
386 3 1  0.000000 118.371964 62.450554 87.144028
387 3 1  0.000000 119.509972 61.547100 86.844177
388 3 1  0.000000 120.516083 62.470142 86.989372
389 3 1  0.000000 120.707771 64.170197 87.043709
390 3 1  0.000000 122.435989 64.691917 86.382912
391 3 1  0.000000 122.053383 64.587440 85.249268
392 3 1  0.000000 122.722580 64.785950 84.154793
393 3 1  0.000000 123.434380 63.245796 83.248695
394 3 1  0.000000 123.781097 63.271915 82.171188
395 3 1  0.000000 124.530304 64.292007 83.159065
396 3 1  0.000000 126.208427 63.556625 82.912231
397 3 1  0.000000 125.743591 64.445564 81.603539
398 3 1  0.000000 125.441681 64.479416 80.063591
399 3 1  0.000000 126.093971 64.911125 78.619682
400 3 1  0.000000 126.895706 66.296852 78.247711
401 4 1  0.000000 38.797749 70.620712 73.227501
402 4 1  0.000000 40.151318 69.831802 72.543900
403 4 1  0.000000 41.306011 70.289604 71.449226
404 4 1  0.000000 42.305401 71.452156 71.688721
405 4 1  0.000000 42.741886 70.584717 72.847321
406 4 1  0.000000 43.997559 71.163437 72.405235
407 4 1  0.000000 43.582691 72.719444 73.086151
408 4 1  0.000000 43.564793 72.388123 75.021652
409 4 1  0.000000 42.310467 73.694565 75.915367
410 4 1  0.000000 42.985184 74.858459 77.204445
411 4 1  0.000000 43.703484 76.275642 77.783997
412 4 1  0.000000 43.588345 74.853645 78.840729
413 4 1  0.000000 42.729355 73.834106 79.026329
414 4 1  0.000000 43.330009 72.703568 80.012222
415 4 1  0.000000 42.651558 71.445137 78.650345
416 4 1  0.000000 42.461151 70.053688 77.499405
417 4 1  0.000000 43.544418 69.301537 78.496078
418 4 1  0.000000 42.998100 68.825447 76.779541
419 4 1  0.000000 44.156052 67.651772 77.571396
420 4 1  0.000000 45.084858 67.389038 76.066170
421 4 1  0.000000 46.107193 68.152809 75.241959
422 4 1  0.000000 47.802158 68.245949 74.799141
423 4 1  0.000000 48.613789 68.350372 76.044609
424 4 1  0.000000 49.335392 70.007774 75.826096
425 4 1  0.000000 49.787659 69.654411 77.371063
426 4 1  0.000000 51.057449 68.481621 77.249588
427 4 1  0.000000 51.280769 67.308655 77.868713
428 4 1  0.000000 52.591892 67.885475 78.265633
429 4 1  0.000000 52.631512 66.286339 77.935654
430 4 1  0.000000 52.951115 65.054718 77.278900
431 4 1  0.000000 54.345604 65.735321 76.821999
432 4 1  0.000000 54.156574 63.863106 77.223091
433 4 1  0.000000 55.975098 64.226990 76.813606
434 4 1  0.000000 56.568153 65.595436 75.550560
435 4 1  0.000000 57.970673 66.266808 74.974983
436 4 1  0.000000 59.349365 67.092239 75.960556
437 4 1  0.000000 59.886799 65.643570 76.654228
438 4 1  0.000000 61.264313 65.239372 77.144714
439 4 1  0.000000 63.168724 65.769722 77.897888
440 4 1  0.000000 65.017937 65.242386 78.162125
441 4 1  0.000000 65.042412 67.082924 77.469223
442 4 1  0.000000 66.315712 66.083755 77.726799
443 4 1  0.000000 67.515396 67.265480 77.856491
444 4 1  0.000000 67.102760 66.997932 76.612633
445 4 1  0.000000 68.647583 67.019165 76.896385
446 4 1  0.000000 69.756760 66.771141 75.824928
447 4 1  0.000000 72.275864 66.354202 75.623192
448 4 1  0.000000 73.638062 66.947784 75.566925
449 4 1  0.000000 74.904083 66.147026 75.637901
450 4 1  0.000000 76.750038 65.331482 75.258301
451 4 1  0.000000 78.068062 64.929268 74.184196
452 4 1  0.000000 79.134651 65.446686 75.483681
453 4 1  0.000000 79.917793 65.754311 74.015358
454 4 1  0.000000 80.967575 66.708511 74.069946
455 4 1  0.000000 82.320808 66.317383 73.442581
456 4 1  0.000000 83.587486 67.638893 73.447884
457 4 1  0.000000 85.483231 68.312485 73.388496
458 4 1  0.000000 86.656181 69.011711 72.068703
459 4 1  0.000000 87.411606 66.849548 72.276863
460 4 1  0.000000 88.211845 67.964516 71.097298
461 4 1  0.000000 89.923698 67.009369 71.479691
462 4 1  0.000000 91.682526 67.214958 70.871208
463 4 1  0.000000 91.803413 68.680092 71.123375
464 4 1  0.000000 93.158035 68.301468 71.554459
465 4 1  0.000000 94.440216 68.063126 70.633919
466 4 1  0.000000 95.838753 68.049454 71.125259
467 4 1  0.000000 96.449844 67.290253 72.737411
468 4 1  0.000000 96.989243 68.124138 73.951515
469 4 1  0.000000 97.746414 69.055862 74.962723
470 4 1  0.000000 98.569786 68.157776 74.195839
471 4 1  0.000000 99.403725 68.043106 73.209610
472 4 1  0.000000 100.622871 68.023109 72.759285
473 4 1  0.000000 101.460106 69.431808 72.793655
474 4 1  0.000000 102.697060 68.063950 73.672737
475 4 1  0.000000 104.163033 67.252434 73.655533
476 4 1  0.000000 105.088936 67.222908 74.719215
477 4 1  0.000000 106.291130 67.383011 75.004860
478 4 1  0.000000 107.076668 68.845268 74.790924
479 4 1  0.000000 108.038765 67.925285 75.312523
480 4 1  0.000000 109.173431 69.165627 75.245979
481 4 1  0.000000 109.273804 69.886909 73.247726
482 4 1  0.000000 110.354500 70.462448 74.187576
483 4 1  0.000000 112.101265 71.245636 74.443115
484 4 1  0.000000 112.734077 70.803131 73.178535
485 4 1  0.000000 113.302658 72.134636 73.327454
486 4 1  0.000000 114.812332 73.153320 72.919495
487 4 1  0.000000 115.670441 72.859901 71.937248
488 4 1  0.000000 113.923241 73.359428 71.369194
489 4 1  0.000000 113.306717 73.103073 69.906403
490 4 1  0.000000 113.841843 74.864052 69.237549
491 4 1  0.000000 113.848442 75.879402 68.036491
492 4 1  0.000000 113.412292 75.682564 66.537689
493 4 1  0.000000 114.578636 77.193977 67.184837
494 4 1  0.000000 114.079475 79.356133 66.633530
495 4 1  0.000000 114.123077 79.858536 64.938469
496 4 1  0.000000 114.315346 80.743629 63.560802
497 4 1  0.000000 115.886948 81.138367 64.333702
498 4 1  0.000000 116.608559 80.560493 63.097733
499 4 1  0.000000 117.765869 81.707443 63.059662
500 4 1  0.000000 116.512253 82.644897 63.490162
501 5 1  0.000000 27.596678 84.665184 74.135780
502 5 1  0.000000 29.119093 84.963036 74.654953
503 5 1  0.000000 29.692869 84.885918 73.071396
504 5 1  0.000000 31.167864 84.766457 72.414719
505 5 1  0.000000 31.688807 86.354744 73.815811
506 5 1  0.000000 33.093319 86.756149 73.502319
507 5 1  0.000000 33.258083 85.556282 74.039085
508 5 1  0.000000 34.893211 84.508354 74.458763
509 5 1  0.000000 35.093704 85.488571 72.605484
510 5 1  0.000000 36.366173 85.243103 71.254494
511 5 1  0.000000 36.784107 84.845116 70.248550
512 5 1  0.000000 36.992142 83.211166 69.531235
513 5 1  0.000000 36.248314 81.322289 68.628525
514 5 1  0.000000 37.783634 80.608574 68.333115
515 5 1  0.000000 38.038033 79.706375 70.082336
516 5 1  0.000000 39.478668 79.740288 70.828751
517 5 1  0.000000 40.483223 78.938271 70.919853
518 5 1  0.000000 41.475292 79.459557 72.145210
519 5 1  0.000000 42.287815 80.476303 72.900620
520 5 1  0.000000 43.414719 79.986023 73.835510
521 5 1  0.000000 43.442398 81.241798 73.043358
522 5 1  0.000000 44.668343 79.711586 72.743187
523 5 1  0.000000 45.738106 80.169334 71.898582
524 5 1  0.000000 46.625568 81.598412 72.421272
525 5 1  0.000000 47.958168 82.218277 72.643044
526 5 1  0.000000 48.992882 81.306351 73.711205
527 5 1  0.000000 50.386806 81.340134 74.132393
528 5 1  0.000000 50.423115 82.030098 75.296921
529 5 1  0.000000 51.557175 81.959320 73.867210
530 5 1  0.000000 51.449711 83.333214 75.440681
531 5 1  0.000000 53.395405 83.774704 76.006149
532 5 1  0.000000 55.309605 83.870140 75.684059
533 5 1  0.000000 56.160202 83.488861 77.187233
534 5 1  0.000000 57.040520 82.414108 77.519516
535 5 1  0.000000 58.248444 82.082977 76.759148
536 5 1  0.000000 58.767776 83.619057 77.745071
537 5 1  0.000000 60.160480 84.024475 78.378937
538 5 1  0.000000 61.019493 85.162689 79.466721
539 5 1  0.000000 62.628994 84.940758 78.948547
540 5 1  0.000000 63.945240 85.369225 78.009605
541 5 1  0.000000 65.526764 84.506088 77.629105
542 5 1  0.000000 66.364021 84.006439 78.797035
543 5 1  0.000000 67.677895 84.160500 79.734764
544 5 1  0.000000 68.931038 85.050575 80.136414
545 5 1  0.000000 70.252281 84.140610 80.688576
546 5 1  0.000000 70.669624 85.255859 79.954590
547 5 1  0.000000 72.231934 85.774559 80.220451
548 5 1  0.000000 73.792099 85.395493 79.756805
549 5 1  0.000000 75.600182 85.946938 79.266205
550 5 1  0.000000 77.339600 85.646858 78.263023
551 5 1  0.000000 79.056305 86.003113 78.319992
552 5 1  0.000000 79.773064 85.649261 79.903465
553 5 1  0.000000 80.917435 86.085953 80.422829
554 5 1  0.000000 82.039505 85.309334 81.111526
555 5 1  0.000000 83.929298 84.633049 81.487915
556 5 1  0.000000 85.516846 85.132309 81.022423
557 5 1  0.000000 86.564972 87.043930 82.119743
558 5 1  0.000000 88.205437 86.740860 81.953918
559 5 1  0.000000 89.361519 86.529289 81.698387
560 5 1  0.000000 90.501579 87.394844 82.957901
561 5 1  0.000000 92.116272 87.540543 82.646057
562 5 1  0.000000 92.440468 89.077377 82.677849
563 5 1  0.000000 93.175682 89.130493 84.146591
564 5 1  0.000000 94.259445 88.767868 85.038078
565 5 1  0.000000 95.519447 88.333878 85.311417
566 5 1  0.000000 97.275406 89.166023 84.562378
567 5 1  0.000000 97.813484 88.460403 83.646210
568 5 1  0.000000 98.915512 89.391945 83.551941
569 5 1  0.000000 99.986488 89.649055 82.266045
570 5 1  0.000000 100.721046 88.057251 83.227272
571 5 1  0.000000 101.292770 88.935036 81.927597
572 5 1  0.000000 102.693214 89.330238 82.955666
573 5 1  0.000000 103.720963 88.054092 82.126175
574 5 1  0.000000 104.028336 87.489014 83.661530
575 5 1  0.000000 105.782791 87.045410 83.956558
576 5 1  0.000000 106.618835 88.351814 85.809082
577 5 1  0.000000 107.576614 87.653931 86.287842
578 5 1  0.000000 108.337364 88.863251 85.751480
579 5 1  0.000000 109.351799 89.811882 86.179451
580 5 1  0.000000 110.861259 89.158508 86.008156
581 5 1  0.000000 111.425728 89.098572 84.665970
582 5 1  0.000000 112.566353 89.840767 85.290092
583 5 1  0.000000 114.041595 89.296593 85.021233
584 5 1  0.000000 115.177902 89.679749 85.373299
585 5 1  0.000000 116.549156 90.096100 86.881622
586 5 1  0.000000 117.845230 89.323601 88.236565
587 5 1  0.000000 117.729828 88.284706 86.796646
588 5 1  0.000000 118.527100 89.207939 87.703667
589 5 1  0.000000 120.168091 89.798637 87.957626
590 5 1  0.000000 121.469749 90.511230 87.325821
591 5 1  0.000000 123.194565 91.031792 87.377121
592 5 1  0.000000 123.271057 91.761673 86.235046
593 5 1  0.000000 124.592735 91.313141 87.922234
594 5 1  0.000000 125.642975 90.740379 88.083069
595 5 1  0.000000 126.304932 91.667694 87.820984
596 5 1  0.000000 128.119614 90.542854 88.219025
597 5 1  0.000000 128.338486 92.232887 88.014717
598 5 1  0.000000 129.246124 91.776863 89.777313
599 5 1  0.000000 129.973053 91.871384 88.188690
600 5 1  0.000000 129.956406 93.625313 89.487526
601 6 1  0.000000 42.400192 102.468605 65.870560
602 6 1  0.000000 41.779587 101.076256 65.831909
603 6 1  0.000000 40.728378 100.972885 67.476341
604 6 1  0.000000 41.317627 101.922195 68.766602
605 6 1  0.000000 40.781666 103.283546 68.912048
606 6 1  0.000000 41.360046 102.952042 70.315094
607 6 1  0.000000 40.481445 104.527679 70.943939
608 6 1  0.000000 40.888279 105.091171 72.196968
609 6 1  0.000000 41.470573 105.706047 73.814392
610 6 1  0.000000 40.764732 106.652107 73.772835
611 6 1  0.000000 41.383499 105.952789 75.194542
612 6 1  0.000000 40.828396 104.704529 75.605743
613 6 1  0.000000 41.008823 103.484856 76.485252
614 6 1  0.000000 40.375313 101.982628 76.079826