Created with TaichiMD

1000 atoms
990 bonds
  0 angles
  0 dihedrals
  0 impropers

1 atom types
1 bond types
0 angle types
0 dihedral types
0 improper types

-80.00000  80.00000 xlo xhi
-80.00000  80.00000 ylo yhi
-80.00000  80.00000 zlo zhi

Masses

1  1.0000

Atoms

  1 0 1  0.000000 59.315929 19.914890 86.878151
  2 0 1  0.000000 58.421768 18.800146 86.563850
  3 0 1  0.000000 57.975754 17.277920 87.049515
  4 0 1  0.000000 58.934944 17.577309 85.871437
  5 0 1  0.000000 58.536400 17.070158 84.538490
  6 0 1  0.000000 58.369495 16.823082 83.074478
  7 0 1  0.000000 59.404324 16.125135 82.306496
  8 0 1  0.000000 58.606899 15.273155 81.195908
  9 0 1  0.000000 57.878578 15.128055 79.880096
 10 0 1  0.000000 57.598881 15.795802 78.581070
 11 0 1  0.000000 59.165031 16.037586 78.522369
 12 0 1  0.000000 60.452183 16.363546 77.790695
 13 0 1  0.000000 61.282936 17.491032 77.118187
 14 0 1  0.000000 60.896244 17.039228 75.712708
 15 0 1  0.000000 60.308605 16.552649 74.369972
 16 0 1  0.000000 61.391464 15.996843 73.640381
 17 0 1  0.000000 62.563488 15.183090 73.689377
 18 0 1  0.000000 63.512218 14.244131 74.481163
 19 0 1  0.000000 64.342972 13.503196 75.316391
 20 0 1  0.000000 64.921127 14.764544 74.883896
 21 0 1  0.000000 65.826920 14.574937 76.123695
 22 0 1  0.000000 67.087311 15.115369 76.472069
 23 0 1  0.000000 67.363129 14.161456 77.799103
 24 0 1  0.000000 67.248367 14.403457 79.344879
 25 0 1  0.000000 68.476471 13.438685 79.263702
 26 0 1  0.000000 68.519371 12.106936 78.577454
 27 0 1  0.000000 69.810799 11.192467 78.722740
 28 0 1  0.000000 71.002960 11.997389 79.129868
 29 0 1  0.000000 72.013153 13.357003 78.933556
 30 0 1  0.000000 72.221649 14.844000 78.776192
 31 0 1  0.000000 72.815247 14.659081 77.310394
 32 0 1  0.000000 72.944344 13.555338 76.039490
 33 0 1  0.000000 73.588249 12.894655 74.781342
 34 0 1  0.000000 73.550430 11.316201 74.947235
 35 0 1  0.000000 73.412621 10.111214 75.633286
 36 0 1  0.000000 74.271118  8.862270 75.239548
 37 0 1  0.000000 75.336006  9.539345 74.524506
 38 0 1  0.000000 76.302147  9.720599 73.403175
 39 0 1  0.000000 77.658211 10.417303 73.732018
 40 0 1  0.000000 77.918091 11.539501 74.664207
 41 0 1  0.000000 78.707222 11.590244 75.856293
 42 0 1  0.000000 78.203056 12.969501 76.396301
 43 0 1  0.000000 78.791817 14.071008 75.414864
 44 0 1  0.000000 78.709579 15.498393 74.847481
 45 0 1  0.000000 79.567520 16.229364 73.809166
 46 0 1  0.000000 80.776131 17.104263 74.343559
 47 0 1  0.000000 81.013496 17.987310 73.064117
 48 0 1  0.000000 81.861603 18.522823 72.135666
 49 0 1  0.000000 81.519432 18.683041 70.673828
 50 0 1  0.000000 81.612389 17.850397 69.414848
 51 0 1  0.000000 82.306007 16.523443 69.779953
 52 0 1  0.000000 82.990547 15.500225 70.733643
 53 0 1  0.000000 84.053055 14.494852 71.394562
 54 0 1  0.000000 85.087013 13.419085 71.809494
 55 0 1  0.000000 85.809631 12.011901 72.052055
 56 0 1  0.000000 86.299095 12.970261 73.203316
 57 0 1  0.000000 86.207581 11.383026 73.317017
 58 0 1  0.000000 86.822662 11.415549 74.783463
 59 0 1  0.000000 86.151993 12.301375 75.947220
 60 0 1  0.000000 87.225441 11.834464 76.863029
 61 0 1  0.000000 86.122749 12.620577 77.723274
 62 0 1  0.000000 86.914459 13.454595 78.676247
 63 0 1  0.000000 87.712723 14.649119 79.321014
 64 0 1  0.000000 88.336510 15.733809 78.522980
 65 0 1  0.000000 88.210739 16.024448 77.077988
 66 0 1  0.000000 88.871727 15.804231 75.653610
 67 0 1  0.000000 89.669106 14.591606 75.730812
 68 0 1  0.000000 90.942635 14.806722 75.114250
 69 0 1  0.000000 90.443481 13.357350 75.432587
 70 0 1  0.000000 90.829544 12.051480 74.657768
 71 0 1  0.000000 91.583344 11.266566 75.892677
 72 0 1  0.000000 93.068321 11.065134 76.173790
 73 0 1  0.000000 93.494888  9.967675 75.289139
 74 0 1  0.000000 94.282455  9.772845 73.837578
 75 0 1  0.000000 95.650620  9.683615 74.348442
 76 0 1  0.000000 96.340660 11.097499 73.897766
 77 0 1  0.000000 96.828979 11.721123 72.607903
 78 0 1  0.000000 98.141411 12.276549 72.224998
 79 0 1  0.000000 98.653786 13.781495 72.008614
 80 0 1  0.000000 99.379776 14.072239 73.270866
 81 0 1  0.000000 100.552353 13.501077 73.837646
 82 0 1  0.000000 100.444977 13.675183 75.461502
 83 0 1  0.000000 101.657829 13.023639 74.836655
 84 0 1  0.000000 102.098129 12.239706 76.130264
 85 0 1  0.000000 102.200577 13.386637 77.359970
 86 0 1  0.000000 103.640579 13.886046 77.427704
 87 0 1  0.000000 105.145180 14.252837 78.065475
 88 0 1  0.000000 106.525146 13.338772 78.420616
 89 0 1  0.000000 105.832512 14.266874 79.586075
 90 0 1  0.000000 106.216049 14.715752 80.935562
 91 0 1  0.000000 106.588806 13.734797 82.091827
 92 0 1  0.000000 105.392929 14.596089 82.282333
 93 0 1  0.000000 106.171036 14.054272 83.521004
 94 0 1  0.000000 106.527489 13.221151 84.856796
 95 0 1  0.000000 106.787270 14.160867 86.065964
 96 0 1  0.000000 107.307426 12.691782 86.279984
 97 0 1  0.000000 108.392227 11.609067 86.792130
 98 0 1  0.000000 109.344589 10.714278 87.607147
 99 0 1  0.000000 110.741669 11.182528 87.649681
100 0 1  0.000000 112.299606 11.581131 87.605362
101 1 1  0.000000 51.134731 17.147272 77.772606
102 1 1  0.000000 51.862034 18.374844 77.237862
103 1 1  0.000000 53.202065 18.294664 78.008537
104 1 1  0.000000 54.076740 18.724449 79.088936
105 1 1  0.000000 55.454548 18.830997 78.556633
106 1 1  0.000000 56.647919 19.400799 78.945526
107 1 1  0.000000 57.516197 20.166328 77.997284
108 1 1  0.000000 57.620781 21.454445 77.126305
109 1 1  0.000000 58.478653 22.100023 78.361206
110 1 1  0.000000 60.053379 22.110029 78.444481
111 1 1  0.000000 61.432262 23.011881 78.359642
112 1 1  0.000000 61.273643 24.171526 79.200317
113 1 1  0.000000 62.123993 25.018154 80.277107
114 1 1  0.000000 61.004124 25.856264 80.542213
115 1 1  0.000000 60.265289 27.112083 80.728897
116 1 1  0.000000 60.445774 28.416590 81.449432
117 1 1  0.000000 59.852787 29.745073 82.069717
118 1 1  0.000000 60.046867 30.698969 80.925117
119 1 1  0.000000 60.159801 32.270672 80.735397
120 1 1  0.000000 59.616188 32.874222 79.529686
121 1 1  0.000000 59.892143 34.165581 80.468117
122 1 1  0.000000 60.751255 35.220448 80.984962
123 1 1  0.000000 62.034046 35.849369 81.280113
124 1 1  0.000000 63.274727 35.583481 80.253830
125 1 1  0.000000 64.824547 35.678070 79.687759
126 1 1  0.000000 65.162369 37.105007 80.218590
127 1 1  0.000000 65.568436 37.710907 81.683586
128 1 1  0.000000 66.203064 39.173489 81.868011
129 1 1  0.000000 66.273758 39.185684 83.468269
130 1 1  0.000000 66.607986 38.681335 84.744690
131 1 1  0.000000 67.750572 37.792130 85.282837
132 1 1  0.000000 68.607185 36.726589 84.357834
133 1 1  0.000000 69.740990 36.958462 83.175430
134 1 1  0.000000 69.841866 36.181728 81.885918
135 1 1  0.000000 70.166283 37.688904 81.519569
136 1 1  0.000000 71.317444 38.239159 80.792892
137 1 1  0.000000 72.694855 37.544144 80.945549
138 1 1  0.000000 74.199997 36.987267 80.668472
139 1 1  0.000000 74.093506 37.818764 82.030052
140 1 1  0.000000 75.689415 38.023632 82.411682
141 1 1  0.000000 76.864822 37.188141 82.223915
142 1 1  0.000000 76.603348 36.387955 83.570419
143 1 1  0.000000 78.029709 36.465763 83.837997
144 1 1  0.000000 79.280869 37.250404 84.524139
145 1 1  0.000000 79.260727 35.690575 84.907394
146 1 1  0.000000 80.154472 35.296581 83.563934
147 1 1  0.000000 81.601212 34.573238 82.814140
148 1 1  0.000000 82.148392 33.680401 81.678421
149 1 1  0.000000 83.278793 33.920689 80.668594
150 1 1  0.000000 84.144348 35.040474 80.507942
151 1 1  0.000000 85.183380 36.057030 80.863533
152 1 1  0.000000 85.361633 37.503883 81.220215
153 1 1  0.000000 85.810417 36.695976 82.319382
154 1 1  0.000000 85.827660 37.263500 83.815811
155 1 1  0.000000 86.619957 38.523506 83.789604
156 1 1  0.000000 85.955444 39.655880 84.720520
157 1 1  0.000000 85.842010 41.004486 83.998055
158 1 1  0.000000 86.852547 41.491566 82.923393
159 1 1  0.000000 88.200592 42.154202 83.075119
160 1 1  0.000000 89.618958 42.256859 83.494713
161 1 1  0.000000 89.135719 42.211296 84.823097
162 1 1  0.000000 90.478722 42.574669 85.464462
163 1 1  0.000000 89.593231 42.113251 86.884895
164 1 1  0.000000 90.191811 40.806599 87.426422
165 1 1  0.000000 89.538872 39.775490 88.400223
166 1 1  0.000000 89.738853 38.409470 87.663658
167 1 1  0.000000 90.129768 37.553886 86.450371
168 1 1  0.000000 91.190346 36.461746 86.735527
169 1 1  0.000000 91.594215 37.594269 85.755829
170 1 1  0.000000 93.045921 38.126369 85.496361
171 1 1  0.000000 93.416786 39.651020 85.130043
172 1 1  0.000000 94.891632 39.606411 85.685036
173 1 1  0.000000 95.902763 38.934166 84.895767
174 1 1  0.000000 96.509987 38.520069 83.454483
175 1 1  0.000000 97.284897 37.331684 83.562660
176 1 1  0.000000 97.833809 37.518436 82.033249
177 1 1  0.000000 97.664886 36.107735 82.016510
178 1 1  0.000000 98.106911 35.545685 80.630829
179 1 1  0.000000 98.830696 34.263309 80.318092
180 1 1  0.000000 100.105736 34.863445 80.690407
181 1 1  0.000000 100.930351 35.447533 79.503380
182 1 1  0.000000 101.880592 36.147198 80.517906
183 1 1  0.000000 102.245987 37.593506 80.821381
184 1 1  0.000000 101.720993 38.717216 79.853920
185 1 1  0.000000 101.285576 40.129436 79.274498
186 1 1  0.000000 102.788559 40.168278 78.833496
187 1 1  0.000000 103.660782 41.386791 78.494720
188 1 1  0.000000 105.225807 41.122631 78.689026
189 1 1  0.000000 106.477638 40.116127 78.426552
190 1 1  0.000000 107.144333 39.060535 77.404533
191 1 1  0.000000 107.978607 39.637268 78.598434
192 1 1  0.000000 109.593742 39.792931 78.474953
193 1 1  0.000000 110.655487 39.764103 79.503517
194 1 1  0.000000 110.259850 38.255871 79.159050
195 1 1  0.000000 111.182388 36.973705 78.846489
196 1 1  0.000000 111.138390 35.728413 77.781448
197 1 1  0.000000 112.565567 36.089046 78.376366
198 1 1  0.000000 114.021271 35.290024 78.476326
199 1 1  0.000000 114.534874 35.221451 76.967339
200 1 1  0.000000 114.648933 36.585461 76.068459
201 2 1  0.000000 50.621452 38.523540 79.199600
202 2 1  0.000000 51.110542 39.406631 80.127434
203 2 1  0.000000 51.897373 38.561302 79.188789
204 2 1  0.000000 52.903534 38.215687 78.011253
205 2 1  0.000000 54.106499 37.781654 77.236008
206 2 1  0.000000 53.188156 37.300323 76.050278
207 2 1  0.000000 53.495525 37.527336 74.704758
208 2 1  0.000000 54.489338 37.545906 73.527756
209 2 1  0.000000 55.251404 38.700680 72.779678
210 2 1  0.000000 56.005482 39.976360 73.170326
211 2 1  0.000000 57.253647 40.100853 72.324532
212 2 1  0.000000 56.489601 41.479671 72.724495
213 2 1  0.000000 57.828442 42.354214 73.079193
214 2 1  0.000000 57.443810 43.284084 71.870148
215 2 1  0.000000 56.861847 44.390968 71.181427
216 2 1  0.000000 58.346008 44.621300 71.022224
217 2 1  0.000000 59.603455 45.563454 71.195099
218 2 1  0.000000 60.412758 46.124714 69.917862
219 2 1  0.000000 61.075516 47.309334 70.766769
220 2 1  0.000000 60.187096 48.534466 71.396576
221 2 1  0.000000 60.634983 49.760719 72.149216
222 2 1  0.000000 61.082474 49.299061 73.551003
223 2 1  0.000000 62.702663 49.661114 73.740768
224 2 1  0.000000 64.188026 49.029316 74.083473
225 2 1  0.000000 63.651146 47.818134 74.646797
226 2 1  0.000000 63.415653 46.463165 75.250801
227 2 1  0.000000 63.828228 45.179207 74.547424
228 2 1  0.000000 64.506340 43.755295 74.788742
229 2 1  0.000000 64.582230 44.257957 73.295212
230 2 1  0.000000 66.046135 43.947029 72.959526
231 2 1  0.000000 66.079498 42.901474 71.819695
232 2 1  0.000000 67.213943 42.364330 70.830765
233 2 1  0.000000 67.330399 41.997284 69.387337
234 2 1  0.000000 68.022461 42.783348 68.249252
235 2 1  0.000000 69.272202 43.611595 67.826469
236 2 1  0.000000 70.370514 42.464714 67.920082
237 2 1  0.000000 71.525444 43.376087 68.692513
238 2 1  0.000000 70.943306 43.976505 70.155319
239 2 1  0.000000 70.593582 44.242405 71.560135
240 2 1  0.000000 70.033829 44.803104 72.776894
241 2 1  0.000000 70.377754 45.480389 74.056740
242 2 1  0.000000 71.904129 44.924629 73.922249
243 2 1  0.000000 73.305466 45.136032 74.808937
244 2 1  0.000000 74.223396 45.966419 74.009155
245 2 1  0.000000 75.513626 46.600113 73.421654
246 2 1  0.000000 76.170753 47.793056 74.109283
247 2 1  0.000000 77.005219 47.838589 72.874649
248 2 1  0.000000 77.701935 48.400940 74.287437
249 2 1  0.000000 77.445992 49.434368 75.504776
250 2 1  0.000000 78.692261 49.962917 76.085602
251 2 1  0.000000 79.147354 51.322212 76.317047
252 2 1  0.000000 78.358704 52.508751 75.845840
253 2 1  0.000000 80.002167 52.709156 75.827507
254 2 1  0.000000 80.842896 53.197124 74.794830
255 2 1  0.000000 81.404716 54.369396 74.214966
256 2 1  0.000000 82.301872 54.089157 72.970352
257 2 1  0.000000 83.286873 52.947933 73.182693
258 2 1  0.000000 84.571266 52.213730 73.238983
259 2 1  0.000000 85.236366 52.360615 74.560623
260 2 1  0.000000 85.343689 52.867287 75.990868
261 2 1  0.000000 85.810944 51.646252 76.849533
262 2 1  0.000000 84.256721 51.386787 77.068916
263 2 1  0.000000 83.217979 51.963531 78.011147
264 2 1  0.000000 83.900566 50.866982 78.894142
265 2 1  0.000000 83.111603 52.240211 79.219917
266 2 1  0.000000 83.648712 52.054798 80.674408
267 2 1  0.000000 84.878990 52.131653 81.596207
268 2 1  0.000000 86.262093 51.938267 81.277657
269 2 1  0.000000 87.685410 51.744755 80.971985
270 2 1  0.000000 88.476547 52.725735 80.089630
271 2 1  0.000000 89.146255 52.662132 78.544342
272 2 1  0.000000 90.506874 52.211582 78.551941
273 2 1  0.000000 91.509766 53.308407 78.409370
274 2 1  0.000000 92.692406 53.051384 79.489937
275 2 1  0.000000 93.989563 53.908493 79.065727
276 2 1  0.000000 94.554527 52.999187 78.113525
277 2 1  0.000000 95.654716 53.153316 79.131317
278 2 1  0.000000 96.093712 51.612694 79.064240
279 2 1  0.000000 97.556671 51.353512 79.030090
280 2 1  0.000000 98.241997 51.727802 77.679771
281 2 1  0.000000 98.957954 53.114048 77.305344
282 2 1  0.000000 99.713280 54.522854 77.217880
283 2 1  0.000000 100.326363 54.902447 78.499519
284 2 1  0.000000 99.971581 54.978245 79.783501
285 2 1  0.000000 99.885162 54.858753 81.194931
286 2 1  0.000000 99.983200 53.553177 82.138397
287 2 1  0.000000 100.346100 52.265251 82.840096
288 2 1  0.000000 101.696732 51.497917 83.238991
289 2 1  0.000000 101.963211 51.626629 81.675674
290 2 1  0.000000 103.472450 51.752586 81.503235
291 2 1  0.000000 103.605110 53.013092 80.805397
292 2 1  0.000000 104.019066 54.119968 81.993462
293 2 1  0.000000 105.232643 55.262856 82.079971
294 2 1  0.000000 106.143059 54.501148 82.989235
295 2 1  0.000000 106.094048 54.720119 84.567673
296 2 1  0.000000 106.193581 53.122803 84.949829
297 2 1  0.000000 107.343674 52.341965 85.513611
298 2 1  0.000000 107.574081 51.034283 84.953789
299 2 1  0.000000 108.897072 51.856064 84.755753
300 2 1  0.000000 110.324028 51.271591 84.297287
301 3 1  0.000000 47.467052 56.967125 79.850784
302 3 1  0.000000 47.534142 57.948444 81.176804
303 3 1  0.000000 47.359470 59.055508 82.136391
304 3 1  0.000000 46.571827 60.199612 81.544144
305 3 1  0.000000 47.670265 60.802429 80.597786
306 3 1  0.000000 48.316601 61.938862 79.917641
307 3 1  0.000000 48.787235 62.515564 81.274185
308 3 1  0.000000 50.157139 61.914940 81.674416
309 3 1  0.000000 50.892361 60.892525 82.697281
310 3 1  0.000000 50.635380 61.794632 83.894539
311 3 1  0.000000 51.392689 61.867298 85.298988
312 3 1  0.000000 52.303108 62.327007 86.389259
313 3 1  0.000000 53.371140 62.445210 85.192513
314 3 1  0.000000 54.790009 62.872112 85.445045
315 3 1  0.000000 55.206875 63.722950 86.626190
316 3 1  0.000000 56.371609 64.589897 86.819199
317 3 1  0.000000 56.655125 64.448235 85.332855
318 3 1  0.000000 58.131424 65.078957 85.130875
319 3 1  0.000000 59.496922 65.788002 84.873322
320 3 1  0.000000 61.042503 65.603310 84.969734
321 3 1  0.000000 61.865395 64.819206 85.957031
322 3 1  0.000000 62.530922 64.932877 84.588531
323 3 1  0.000000 62.877499 65.807648 83.446762
324 3 1  0.000000 63.704636 66.379005 82.379036
325 3 1  0.000000 63.923386 65.908623 80.837273
326 3 1  0.000000 65.441139 65.887314 80.458702
327 3 1  0.000000 66.222160 65.051964 79.432495
328 3 1  0.000000 67.071869 63.859352 79.060783
329 3 1  0.000000 67.275185 62.774189 80.295990
330 3 1  0.000000 67.487030 62.925381 81.795082
331 3 1  0.000000 66.171242 62.216206 82.274742
332 3 1  0.000000 65.807854 60.846344 82.987587
333 3 1  0.000000 66.595558 59.551739 82.646980
334 3 1  0.000000 67.661507 58.721466 83.358665
335 3 1  0.000000 68.750328 57.644741 83.563400
336 3 1  0.000000 69.265167 56.644474 84.701859
337 3 1  0.000000 69.776924 55.161308 84.866898
338 3 1  0.000000 71.243378 55.386612 84.745979
339 3 1  0.000000 72.219009 54.479786 84.178673
340 3 1  0.000000 73.097015 53.576439 83.326118
341 3 1  0.000000 73.553894 52.398994 83.478638
342 3 1  0.000000 73.968605 53.456543 82.438614
343 3 1  0.000000 74.501404 53.236637 81.115273
344 3 1  0.000000 75.749451 53.663372 80.427574
345 3 1  0.000000 76.272034 55.088467 80.370270
346 3 1  0.000000 75.754028 56.551586 80.048256
347 3 1  0.000000 74.456078 57.236031 80.454865
348 3 1  0.000000 75.122086 57.952370 81.629257
349 3 1  0.000000 74.780678 58.860081 82.904861
350 3 1  0.000000 75.750259 59.985489 83.445976
351 3 1  0.000000 76.779190 60.181152 84.612152
352 3 1  0.000000 78.130493 59.903625 84.143135
353 3 1  0.000000 78.761383 58.981506 85.090050
354 3 1  0.000000 78.773758 57.918350 86.019173
355 3 1  0.000000 78.027542 56.662994 85.668831
356 3 1  0.000000 78.481400 55.865875 84.426765
357 3 1  0.000000 79.784103 55.052486 84.559311
358 3 1  0.000000 81.297287 54.624897 84.449326
359 3 1  0.000000 81.652550 54.917469 82.966393
360 3 1  0.000000 82.952263 55.895874 82.539673
361 3 1  0.000000 82.012344 56.906281 81.742332
362 3 1  0.000000 83.028351 57.649639 80.884254
363 3 1  0.000000 84.232788 56.853783 80.263046
364 3 1  0.000000 83.584488 55.944668 79.161797
365 3 1  0.000000 84.524506 56.364349 77.862656
366 3 1  0.000000 84.666016 57.913570 77.531013
367 3 1  0.000000 86.044922 57.637253 76.818352
368 3 1  0.000000 87.176788 56.931007 77.301643
369 3 1  0.000000 88.238808 56.664612 78.536247
370 3 1  0.000000 88.940163 57.569607 79.483856
371 3 1  0.000000 88.237473 56.743786 80.534676
372 3 1  0.000000 88.574623 55.764648 81.598305
373 3 1  0.000000 89.311226 54.964779 82.641121
374 3 1  0.000000 89.434868 56.301846 83.354752
375 3 1  0.000000 90.980858 56.554180 82.951759
376 3 1  0.000000 92.396988 56.159824 82.934494
377 3 1  0.000000 93.959145 56.198769 83.116669
378 3 1  0.000000 94.876160 55.296650 83.888214
379 3 1  0.000000 95.383911 56.337101 82.959831
380 3 1  0.000000 96.253036 57.137856 82.050400
381 3 1  0.000000 97.668076 57.482533 82.656570
382 3 1  0.000000 97.882851 57.890640 81.331429
383 3 1  0.000000 98.950668 58.872726 81.678459
384 3 1  0.000000 100.512085 58.995663 81.717705
385 3 1  0.000000 101.337723 58.936569 83.053169
386 3 1  0.000000 101.892090 59.954502 82.177330
387 3 1  0.000000 101.439270 61.315170 81.938873
388 3 1  0.000000 100.601517 62.492374 82.359550
389 3 1  0.000000 100.019341 63.715027 81.560173
390 3 1  0.000000 100.645645 65.124413 81.752968
391 3 1  0.000000 101.034691 66.193443 80.872330
392 3 1  0.000000 101.541901 66.531067 82.248779
393 3 1  0.000000 103.068199 66.775978 82.054466
394 3 1  0.000000 104.187927 67.574455 82.640816
395 3 1  0.000000 104.926338 68.619438 81.924965
396 3 1  0.000000 105.523178 70.195999 82.003761
397 3 1  0.000000 106.650482 71.270638 81.690926
398 3 1  0.000000 106.391693 71.638443 80.272125
399 3 1  0.000000 106.256897 72.839424 81.403923
400 3 1  0.000000 105.253983 73.957451 81.838203
401 4 1  0.000000 50.560581 67.792290 78.636871
402 4 1  0.000000 50.132980 67.847794 80.125015
403 4 1  0.000000 50.782249 68.485291 81.225365
404 4 1  0.000000 51.702061 68.507820 82.384117
405 4 1  0.000000 52.192253 67.018074 82.682442
406 4 1  0.000000 52.829315 65.695541 82.178932
407 4 1  0.000000 53.383366 65.172798 80.969360
408 4 1  0.000000 53.443233 63.638771 81.301003
409 4 1  0.000000 54.955795 63.560352 80.849991
410 4 1  0.000000 55.639290 62.126781 80.671852
411 4 1  0.000000 56.380630 62.590946 79.368164
412 4 1  0.000000 57.259003 63.552326 78.711121
413 4 1  0.000000 58.359421 64.222076 77.985489
414 4 1  0.000000 58.804546 64.213623 79.538902
415 4 1  0.000000 58.768131 65.690117 79.711807
416 4 1  0.000000 60.048607 66.350243 79.360237
417 4 1  0.000000 60.119728 67.933296 79.065987
418 4 1  0.000000 61.024269 68.848534 79.856781
419 4 1  0.000000 62.341648 69.580338 80.193138
420 4 1  0.000000 63.738716 70.051254 80.089691
421 4 1  0.000000 65.057442 70.440918 79.640732
422 4 1  0.000000 66.127617 69.416710 80.046806
423 4 1  0.000000 66.952354 68.955963 81.270996
424 4 1  0.000000 66.829117 69.573082 82.717278
425 4 1  0.000000 67.289970 68.747108 83.796822
426 4 1  0.000000 68.510361 68.206375 84.666603
427 4 1  0.000000 69.811066 69.033943 84.958252
428 4 1  0.000000 70.585159 70.175934 85.287971
429 4 1  0.000000 70.766380 70.610291 83.733406
430 4 1  0.000000 70.694130 71.273453 82.268951
431 4 1  0.000000 72.036720 71.536446 82.790680
432 4 1  0.000000 73.085587 72.523277 82.735420
433 4 1  0.000000 73.588615 73.113731 81.523491
434 4 1  0.000000 74.368362 72.641388 80.324677
435 4 1  0.000000 74.304626 71.444946 79.407318
436 4 1  0.000000 73.416328 70.805031 78.352158
437 4 1  0.000000 73.378593 69.414650 78.909821
438 4 1  0.000000 72.657822 68.381409 79.913994
439 4 1  0.000000 73.922485 67.653397 80.443199
440 4 1  0.000000 75.188446 67.729248 81.307457
441 4 1  0.000000 76.133812 66.300957 80.983604
442 4 1  0.000000 77.536980 66.022423 80.163734
443 4 1  0.000000 77.520874 67.438538 80.025841
444 4 1  0.000000 78.275955 68.468094 79.138870
445 4 1  0.000000 79.689865 68.786476 78.531319
446 4 1  0.000000 81.206352 68.658035 78.173935
447 4 1  0.000000 82.020470 67.491859 78.688332
448 4 1  0.000000 81.623924 66.015350 78.624115
449 4 1  0.000000 81.650253 66.230537 80.088272
450 4 1  0.000000 81.093094 65.817635 81.551407
451 4 1  0.000000 80.731384 66.320061 82.955360
452 4 1  0.000000 81.573082 67.576416 83.450394
453 4 1  0.000000 81.509163 69.111877 83.473236
454 4 1  0.000000 82.576775 69.677505 82.413391
455 4 1  0.000000 81.275764 70.549118 82.243172
456 4 1  0.000000 82.219231 71.687263 81.991348
457 4 1  0.000000 81.916290 73.024612 81.276497
458 4 1  0.000000 83.054695 73.384300 80.369087
459 4 1  0.000000 83.389145 73.655159 78.818680
460 4 1  0.000000 84.802193 73.374359 79.170677
461 4 1  0.000000 85.876236 73.214500 78.076698
462 4 1  0.000000 86.290703 74.300110 79.043640
463 4 1  0.000000 86.889313 75.560150 79.583641
464 4 1  0.000000 88.163918 76.447807 79.802422
465 4 1  0.000000 88.531601 75.364731 80.831795
466 4 1  0.000000 88.327507 74.549652 82.265594
467 4 1  0.000000 89.740631 75.115562 82.756279
468 4 1  0.000000 89.574913 75.329895 84.291298
469 4 1  0.000000 90.345718 75.947845 85.502777
470 4 1  0.000000 91.474586 75.312378 84.461922
471 4 1  0.000000 91.747231 74.727180 85.839622
472 4 1  0.000000 91.950333 73.880058 86.968788
473 4 1  0.000000 92.450775 72.429771 87.027283
474 4 1  0.000000 92.532845 70.872025 87.256195
475 4 1  0.000000 92.822548 70.230858 86.059853
476 4 1  0.000000 92.612930 70.225395 84.551361
477 4 1  0.000000 92.440163 70.777206 83.143684
478 4 1  0.000000 93.121498 71.534126 81.961761
479 4 1  0.000000 94.557190 71.738007 81.597206
480 4 1  0.000000 95.923271 71.452065 82.271576
481 4 1  0.000000 96.139359 69.983879 82.442955
482 4 1  0.000000 96.865059 70.252502 81.010696
483 4 1  0.000000 98.042732 69.208626 80.826096
484 4 1  0.000000 99.158012 70.193237 81.003143
485 4 1  0.000000 100.558685 70.914131 80.995697
486 4 1  0.000000 100.130211 71.421219 82.395912
487 4 1  0.000000 100.309021 71.001007 83.885597
488 4 1  0.000000 101.741043 71.514748 84.226982
489 4 1  0.000000 101.997871 70.676514 85.471397
490 4 1  0.000000 103.535805 71.089432 85.486237
491 4 1  0.000000 103.666649 70.601791 86.970543
492 4 1  0.000000 104.897385 70.118515 86.383316
493 4 1  0.000000 106.366867 70.474831 85.811829
494 4 1  0.000000 107.918701 70.621170 85.560196
495 4 1  0.000000 108.647636 71.698792 85.893188
496 4 1  0.000000 108.688881 73.126831 85.580467
497 4 1  0.000000 108.293709 74.166054 86.538300
498 4 1  0.000000 106.965210 74.689690 87.265289
499 4 1  0.000000 108.004784 75.533875 88.138130
500 4 1  0.000000 106.872505 75.305405 89.103134
501 5 1  0.000000 47.862812 93.303444 91.474236
502 5 1  0.000000 48.385670 93.094193 90.181648
503 5 1  0.000000 49.879658 93.413216 90.600548
504 5 1  0.000000 51.359055 93.291367 90.997803
505 5 1  0.000000 52.184734 93.008278 89.797951
506 5 1  0.000000 53.369873 93.669449 90.321762
507 5 1  0.000000 53.368999 92.461273 89.309982
508 5 1  0.000000 53.606037 91.248802 88.463509
509 5 1  0.000000 54.493172 90.807022 87.248779
510 5 1  0.000000 55.751453 91.710457 86.956474
511 5 1  0.000000 56.889347 92.516655 87.444885
512 5 1  0.000000 57.248852 91.000725 87.025597
513 5 1  0.000000 58.399147 89.916985 86.502510
514 5 1  0.000000 58.707516 88.559494 85.811211
515 5 1  0.000000 58.535275 88.469475 84.214287
516 5 1  0.000000 60.085537 88.638725 84.444740
517 5 1  0.000000 60.681778 87.224014 84.438919
518 5 1  0.000000 61.910080 86.929390 83.823334
519 5 1  0.000000 62.595901 87.146156 82.569229
520 5 1  0.000000 63.856873 87.800179 82.884491
521 5 1  0.000000 65.104828 87.616745 82.053558
522 5 1  0.000000 66.246017 87.495659 82.917320
523 5 1  0.000000 67.681999 87.774857 82.179573
524 5 1  0.000000 68.610458 88.889030 82.645111
525 5 1  0.000000 68.758766 90.022247 83.779205
526 5 1  0.000000 68.034431 91.042618 84.667809
527 5 1  0.000000 68.403229 92.384254 84.143524
528 5 1  0.000000 67.576675 93.417992 83.605743
529 5 1  0.000000 66.455093 93.913048 82.876984
530 5 1  0.000000 66.968758 93.728294 81.374939
531 5 1  0.000000 67.120461 93.111023 80.135910
532 5 1  0.000000 67.119255 91.932983 79.312935
533 5 1  0.000000 68.452835 91.201385 79.351074
534 5 1  0.000000 69.664467 92.208168 79.140205
535 5 1  0.000000 71.097023 92.513275 79.657692
536 5 1  0.000000 71.583435 93.584068 80.695999
537 5 1  0.000000 71.929756 93.332497 82.055542
538 5 1  0.000000 72.948387 92.427391 81.591125
539 5 1  0.000000 74.207794 91.814674 82.482468
540 5 1  0.000000 74.391075 90.303658 82.268478
541 5 1  0.000000 74.065514 90.318459 80.773956
542 5 1  0.000000 74.619438 88.978302 80.276718
543 5 1  0.000000 75.869385 88.373886 80.540245
544 5 1  0.000000 75.566391 86.935097 79.744087
545 5 1  0.000000 76.014664 87.343498 78.401527
546 5 1  0.000000 76.799629 86.924965 76.954399
547 5 1  0.000000 77.720711 86.536339 75.670532
548 5 1  0.000000 77.933533 85.061249 75.887024
549 5 1  0.000000 78.128822 83.687492 76.422089
550 5 1  0.000000 78.313858 82.277496 76.914505
551 5 1  0.000000 79.641258 82.186020 77.797333
552 5 1  0.000000 80.981773 81.760712 77.368980
553 5 1  0.000000 81.593040 82.213280 78.667374
554 5 1  0.000000 82.872101 82.793983 78.338242
555 5 1  0.000000 82.414017 84.247681 77.918755
556 5 1  0.000000 83.238487 85.265877 78.719208
557 5 1  0.000000 83.882301 86.630569 78.323677
558 5 1  0.000000 85.405571 86.191605 77.871719
559 5 1  0.000000 84.966293 87.493385 76.965950
560 5 1  0.000000 85.507080 88.296425 75.877792
561 5 1  0.000000 85.824738 89.815926 76.084846
562 5 1  0.000000 86.693550 90.899170 76.552605
563 5 1  0.000000 87.813690 90.601662 77.555626
564 5 1  0.000000 88.847557 90.643219 78.764946
565 5 1  0.000000 89.298584 89.825829 79.922493
566 5 1  0.000000 90.728516 89.683762 79.334946
567 5 1  0.000000 91.958626 90.550842 79.839340
568 5 1  0.000000 92.178886 89.065933 79.448845
569 5 1  0.000000 93.656097 89.009491 79.084488
570 5 1  0.000000 93.764084 88.551788 77.591042
571 5 1  0.000000 93.932175 89.039391 76.019661
572 5 1  0.000000 95.129051 88.591843 75.118423
573 5 1  0.000000 95.863159 89.878967 75.248131
574 5 1  0.000000 97.015450 90.300346 76.203621
575 5 1  0.000000 98.196808 89.502090 76.700829
576 5 1  0.000000 98.079124 89.858521 78.204613
577 5 1  0.000000 97.931831 88.618942 79.218170
578 5 1  0.000000 99.204453 88.259689 79.779877
579 5 1  0.000000 98.588524 87.079208 80.329163
580 5 1  0.000000 97.108009 86.407234 80.176086
581 5 1  0.000000 96.636375 84.930046 79.837166
582 5 1  0.000000 97.634453 83.842964 79.265671
583 5 1  0.000000 98.586121 83.203789 79.960861
584 5 1  0.000000 99.841537 82.762856 79.003448
585 5 1  0.000000 100.942451 82.116287 78.162018
586 5 1  0.000000 101.882301 80.986275 78.953758
587 5 1  0.000000 102.471130 82.317513 79.389130
588 5 1  0.000000 103.899841 82.629883 79.183075
589 5 1  0.000000 105.377281 83.006493 78.576973
590 5 1  0.000000 105.602493 83.602821 79.952271
591 5 1  0.000000 106.739937 84.552353 79.554909
592 5 1  0.000000 107.761467 83.850143 80.160362
593 5 1  0.000000 109.145012 84.027824 80.849510
594 5 1  0.000000 110.264778 83.129616 81.126572
595 5 1  0.000000 110.634560 83.436943 79.586548
596 5 1  0.000000 111.701462 84.379639 78.821228
597 5 1  0.000000 113.169327 84.706093 79.350258
598 5 1  0.000000 113.914780 85.801003 78.574112
599 5 1  0.000000 114.114983 85.620110 80.098022
600 5 1  0.000000 114.804665 86.865906 80.852257
601 6 1  0.000000 52.247650 91.744911 81.710197
602 6 1  0.000000 53.034290 91.956924 80.499489
603 6 1  0.000000 52.650387 93.428276 79.874313
604 6 1  0.000000 53.219616 93.459152 78.550591
605 6 1  0.000000 52.661983 94.850548 77.886742
606 6 1  0.000000 53.144630 96.248322 78.072578
607 6 1  0.000000 54.521732 96.473503 77.206291
608 6 1  0.000000 55.319225 97.522095 76.467728
609 6 1  0.000000 54.967064 99.076660 75.995834
610 6 1  0.000000 55.744736 99.239029 77.338066
611 6 1  0.000000 57.157837 99.907425 77.256615
612 6 1  0.000000 57.637505 101.381783 76.707695
613 6 1  0.000000 59.090656 101.671570 76.169838
614 6 1  0.000000 60.554016 101.032104 76.235550
615 6 1  0.000000 61.488670 99.801361 76.714500
616 6 1  0.000000 62.614391 100.251137 77.536865
617 6 1  0.000000 62.851776 100.832558 79.129242