Created with TaichiMD

1000 atoms
990 bonds
  0 angles
  0 dihedrals
  0 impropers

1 atom types
1 bond types
0 angle types
0 dihedral types
0 improper types

-80.00000  80.00000 xlo xhi
-80.00000  80.00000 ylo yhi
-80.00000  80.00000 zlo zhi

Masses

1  1.0000

Atoms

  1 0 1  0.000000  3.758415 19.997887 80.011368
  2 0 1  0.000000  5.311234 20.008972 80.011475
  3 0 1  0.000000  6.835245 20.011883 80.010071
  4 0 1  0.000000  8.370893 19.985180 79.997910
  5 0 1  0.000000  9.929090 19.981567 79.982422
  6 0 1  0.000000 11.479393 20.003391 79.990189
  7 0 1  0.000000 12.989965 19.990803 79.996857
  8 0 1  0.000000 14.570864 20.014687 80.004730
  9 0 1  0.000000 16.098772 19.995499 80.003281
 10 0 1  0.000000 17.639124 20.014099 79.993103
 11 0 1  0.000000 19.172871 19.981018 80.016083
 12 0 1  0.000000 20.725147 19.981647 80.006516
 13 0 1  0.000000 22.267015 19.997467 79.986450
 14 0 1  0.000000 23.796904 20.009258 79.988266
 15 0 1  0.000000 25.329941 19.985960 80.018616
 16 0 1  0.000000 26.885271 19.980244 80.014267
 17 0 1  0.000000 28.394485 19.995075 79.996597
 18 0 1  0.000000 29.968431 20.012585 79.992439
 19 0 1  0.000000 31.473303 20.002741 79.982162
 20 0 1  0.000000 33.045784 19.996386 79.988251
 21 0 1  0.000000 34.577724 19.981213 80.000366
 22 0 1  0.000000 36.122837 19.991339 79.980438
 23 0 1  0.000000 37.647228 20.018036 80.000015
 24 0 1  0.000000 39.200306 19.988274 79.998032
 25 0 1  0.000000 40.747993 20.008858 80.015335
 26 0 1  0.000000 42.250973 20.005703 80.019592
 27 0 1  0.000000 43.821686 19.994513 79.996704
 28 0 1  0.000000 45.365505 20.001263 79.987198
 29 0 1  0.000000 46.888542 20.005623 79.988373
 30 0 1  0.000000 48.413528 19.988384 79.987518
 31 0 1  0.000000 49.965008 20.018566 79.997162
 32 0 1  0.000000 51.493759 19.996395 79.985947
 33 0 1  0.000000 53.059425 19.985405 80.017181
 34 0 1  0.000000 54.596874 20.010490 79.989273
 35 0 1  0.000000 56.131721 19.991318 80.004990
 36 0 1  0.000000 57.680798 20.012024 80.019089
 37 0 1  0.000000 59.211910 19.986132 79.997910
 38 0 1  0.000000 60.746227 20.016426 79.981064
 39 0 1  0.000000 62.296188 19.982805 80.015106
 40 0 1  0.000000 63.849186 20.002836 79.980515
 41 0 1  0.000000 65.355171 19.984688 80.018936
 42 0 1  0.000000 66.916222 20.010662 79.995239
 43 0 1  0.000000 68.453545 19.984150 79.983505
 44 0 1  0.000000 69.983788 19.990547 79.996231
 45 0 1  0.000000 71.523651 19.984436 80.011612
 46 0 1  0.000000 73.065231 20.004494 79.994766
 47 0 1  0.000000 74.625031 20.011448 80.014282
 48 0 1  0.000000 76.169922 19.986225 79.980515
 49 0 1  0.000000 77.678642 20.000273 79.995407
 50 0 1  0.000000 79.226257 19.994949 80.004715
 51 0 1  0.000000 80.765053 19.981560 80.020416
 52 0 1  0.000000 82.320023 19.993134 79.979004
 53 0 1  0.000000 83.866493 20.010307 79.990891
 54 0 1  0.000000 85.390823 20.005592 79.998062
 55 0 1  0.000000 86.929298 19.997589 80.012833
 56 0 1  0.000000 88.449486 19.986805 80.010071
 57 0 1  0.000000 90.003967 19.994373 80.000854
 58 0 1  0.000000 91.570274 19.982700 79.989227
 59 0 1  0.000000 93.098419 20.010338 80.004990
 60 0 1  0.000000 94.620972 19.980045 79.984802
 61 0 1  0.000000 96.181015 20.015085 80.013275
 62 0 1  0.000000 97.693001 19.981947 79.980980
 63 0 1  0.000000 99.255539 19.992420 79.980713
 64 0 1  0.000000 100.793396 19.990189 79.994019
 65 0 1  0.000000 102.339752 20.005360 79.991714
 66 0 1  0.000000 103.870636 19.987236 80.016647
 67 0 1  0.000000 105.394745 20.001770 79.995407
 68 0 1  0.000000 106.959549 20.013784 79.992661
 69 0 1  0.000000 108.484047 20.011604 79.987473
 70 0 1  0.000000 110.023308 20.001820 79.979309
 71 0 1  0.000000 111.555046 19.999073 79.997543
 72 0 1  0.000000 113.102303 20.015869 79.980606
 73 0 1  0.000000 114.646721 19.979839 80.004593
 74 0 1  0.000000 116.174850 19.979431 79.982635
 75 0 1  0.000000 117.742943 19.988306 79.991974
 76 0 1  0.000000 119.265404 20.015017 80.001328
 77 0 1  0.000000 120.823402 19.991962 79.981171
 78 0 1  0.000000 122.358727 20.013523 80.009323
 79 0 1  0.000000 123.909859 19.982800 79.991974
 80 0 1  0.000000 125.414406 19.981556 80.012787
 81 0 1  0.000000 126.953941 20.001240 80.013779
 82 0 1  0.000000 128.511520 19.984707 80.019730
 83 0 1  0.000000 130.061707 20.006496 80.012878
 84 0 1  0.000000 131.610214 20.014149 80.017090
 85 0 1  0.000000 133.121643 20.018456 79.980957
 86 0 1  0.000000 134.660446 20.015247 80.006516
 87 0 1  0.000000 136.230743 19.996498 79.984802
 88 0 1  0.000000 137.763626 19.986790 80.005280
 89 0 1  0.000000 139.298553 19.982754 79.982925
 90 0 1  0.000000 140.824356 19.990253 79.997940
 91 0 1  0.000000 142.358780 19.983223 79.995865
 92 0 1  0.000000 143.907928 20.002016 80.020248
 93 0 1  0.000000 145.435394 19.993420 79.986023
 94 0 1  0.000000 146.978455 19.984997 80.017197
 95 0 1  0.000000 148.524109 19.999783 80.002472
 96 0 1  0.000000 150.062012 19.989719 79.990250
 97 0 1  0.000000 151.607651 20.006905 80.005936
 98 0 1  0.000000 153.144226 20.006107 79.995087
 99 0 1  0.000000 154.710632 19.980915 80.004028
100 0 1  0.000000 156.226654 20.012665 80.014587
101 1 1  0.000000  3.782169 33.331463 79.988007
102 1 1  0.000000  5.291763 33.326283 79.998779
103 1 1  0.000000  6.853346 33.321239 80.006058
104 1 1  0.000000  8.408463 33.323704 80.009155
105 1 1  0.000000  9.936034 33.317150 80.016632
106 1 1  0.000000 11.468255 33.314678 80.000931
107 1 1  0.000000 13.003543 33.338383 79.994110
108 1 1  0.000000 14.551635 33.313190 80.011948
109 1 1  0.000000 16.088409 33.329998 79.995300
110 1 1  0.000000 17.640190 33.320686 80.004883
111 1 1  0.000000 19.162649 33.338253 79.981644
112 1 1  0.000000 20.702063 33.323162 79.989731
113 1 1  0.000000 22.254210 33.343075 80.001221
114 1 1  0.000000 23.797161 33.344532 79.987976
115 1 1  0.000000 25.327198 33.332966 80.019791
116 1 1  0.000000 26.860458 33.351772 80.003479
117 1 1  0.000000 28.417152 33.315777 79.994293
118 1 1  0.000000 29.966557 33.322285 79.994980
119 1 1  0.000000 31.473686 33.348816 79.982986
120 1 1  0.000000 33.026493 33.329323 80.019867
121 1 1  0.000000 34.568233 33.340221 80.007431
122 1 1  0.000000 36.118809 33.348202 79.982788
123 1 1  0.000000 37.670380 33.346745 80.000000
124 1 1  0.000000 39.185883 33.312450 79.984329
125 1 1  0.000000 40.721329 33.334095 80.007477
126 1 1  0.000000 42.279007 33.316219 80.019745
127 1 1  0.000000 43.831161 33.343876 79.985672
128 1 1  0.000000 45.364529 33.340397 79.992142
129 1 1  0.000000 46.896263 33.316120 80.012634
130 1 1  0.000000 48.443542 33.312550 79.993210
131 1 1  0.000000 49.987003 33.324711 80.002228
132 1 1  0.000000 51.507362 33.326908 79.988037
133 1 1  0.000000 53.056137 33.324810 79.980072
134 1 1  0.000000 54.590931 33.336239 80.002060
135 1 1  0.000000 56.115311 33.352879 80.019119
136 1 1  0.000000 57.666824 33.327625 79.991196
137 1 1  0.000000 59.204071 33.338116 80.006561
138 1 1  0.000000 60.762192 33.350483 79.995850
139 1 1  0.000000 62.280258 33.350750 79.990204
140 1 1  0.000000 63.830448 33.333797 80.015518
141 1 1  0.000000 65.354073 33.348202 80.013916
142 1 1  0.000000 66.926636 33.354130 80.003525
143 1 1  0.000000 68.433693 33.337940 79.995087
144 1 1  0.000000 69.997574 33.353596 80.001556
145 1 1  0.000000 71.532341 33.343662 80.015656
146 1 1  0.000000 73.064842 33.337345 80.020767
147 1 1  0.000000 74.628479 33.327908 79.993423
148 1 1  0.000000 76.162712 33.346661 80.003311
149 1 1  0.000000 77.710327 33.322773 80.005219
150 1 1  0.000000 79.219749 33.326458 80.011322
151 1 1  0.000000 80.759705 33.319401 80.002731
152 1 1  0.000000 82.297318 33.345928 80.019348
153 1 1  0.000000 83.831924 33.337292 79.993607
154 1 1  0.000000 85.384048 33.337139 80.002319
155 1 1  0.000000 86.941101 33.351215 80.019928
156 1 1  0.000000 88.464325 33.336987 79.991577
157 1 1  0.000000 90.023415 33.331066 79.989670
158 1 1  0.000000 91.551140 33.320438 80.010880
159 1 1  0.000000 93.081123 33.344372 80.018097
160 1 1  0.000000 94.643013 33.324665 79.988525
161 1 1  0.000000 96.151581 33.329731 79.985458
162 1 1  0.000000 97.719780 33.330856 79.997147
163 1 1  0.000000 99.237122 33.347607 80.015549
164 1 1  0.000000 100.787979 33.338772 79.982681
165 1 1  0.000000 102.311340 33.328899 80.005264
166 1 1  0.000000 103.880379 33.319775 80.012970
167 1 1  0.000000 105.404121 33.325909 80.008743
168 1 1  0.000000 106.935707 33.328609 80.017685
169 1 1  0.000000 108.487846 33.333416 79.993073
170 1 1  0.000000 110.016182 33.352505 79.993958
171 1 1  0.000000 111.578224 33.320568 79.998688
172 1 1  0.000000 113.109718 33.348213 79.980453
173 1 1  0.000000 114.648827 33.324711 79.991165
174 1 1  0.000000 116.173492 33.317631 79.983810
175 1 1  0.000000 117.745087 33.331226 80.007019
176 1 1  0.000000 119.271660 33.338848 79.988098
177 1 1  0.000000 120.818222 33.340984 80.005371
178 1 1  0.000000 122.360214 33.348026 80.013351
179 1 1  0.000000 123.882767 33.319614 80.019104
180 1 1  0.000000 125.429466 33.350552 80.004776
181 1 1  0.000000 126.989685 33.331280 79.984146
182 1 1  0.000000 128.524628 33.336742 79.993958
183 1 1  0.000000 130.068985 33.354191 80.018600
184 1 1  0.000000 131.592453 33.323750 80.001678
185 1 1  0.000000 133.144684 33.328594 80.008698
186 1 1  0.000000 134.654495 33.341755 79.980469
187 1 1  0.000000 136.216995 33.340710 80.018082
188 1 1  0.000000 137.757782 33.335361 79.987549
189 1 1  0.000000 139.269455 33.337589 80.015572
190 1 1  0.000000 140.843384 33.352268 79.997559
191 1 1  0.000000 142.362549 33.339634 80.013504
192 1 1  0.000000 143.890747 33.321316 79.989563
193 1 1  0.000000 145.447205 33.338978 80.011246
194 1 1  0.000000 146.997299 33.326244 79.983215
195 1 1  0.000000 148.547470 33.339466 80.002304
196 1 1  0.000000 150.059952 33.353672 79.986710
197 1 1  0.000000 151.607010 33.329403 80.008301
198 1 1  0.000000 153.155975 33.327091 79.980927
199 1 1  0.000000 154.700378 33.319439 79.991043
200 1 1  0.000000 156.212830 33.340691 80.014153
201 2 1  0.000000  3.774230 46.646641 80.009003
202 2 1  0.000000  5.317606 46.651806 80.011261
203 2 1  0.000000  6.838110 46.662132 80.001984
204 2 1  0.000000  8.382306 46.664234 80.003250
205 2 1  0.000000  9.940174 46.678539 79.979309
206 2 1  0.000000 11.479758 46.680340 79.984940
207 2 1  0.000000 13.017738 46.656857 80.018478
208 2 1  0.000000 14.551786 46.671360 79.983322
209 2 1  0.000000 16.071875 46.673176 80.003494
210 2 1  0.000000 17.635078 46.654133 80.004730
211 2 1  0.000000 19.152861 46.672359 79.981445
212 2 1  0.000000 20.730883 46.671352 79.992111
213 2 1  0.000000 22.268295 46.654259 80.006760
214 2 1  0.000000 23.771900 46.675800 79.982056
215 2 1  0.000000 25.347589 46.668575 79.981796
216 2 1  0.000000 26.854284 46.668491 80.006622
217 2 1  0.000000 28.403601 46.652950 79.984451
218 2 1  0.000000 29.937010 46.650501 79.994293
219 2 1  0.000000 31.473536 46.681149 80.015549
220 2 1  0.000000 33.011871 46.657047 80.005371
221 2 1  0.000000 34.562428 46.651173 79.989029
222 2 1  0.000000 36.092018 46.651844 79.995972
223 2 1  0.000000 37.636326 46.679646 79.987518
224 2 1  0.000000 39.174606 46.659023 80.001419
225 2 1  0.000000 40.734482 46.656200 80.001343
226 2 1  0.000000 42.261024 46.652676 80.004715
227 2 1  0.000000 43.823235 46.683331 79.997360
228 2 1  0.000000 45.356529 46.651867 79.995132
229 2 1  0.000000 46.890736 46.668598 80.013443
230 2 1  0.000000 48.448368 46.682568 80.017044
231 2 1  0.000000 49.956841 46.659466 79.993958
232 2 1  0.000000 51.507660 46.661503 79.982162
233 2 1  0.000000 53.029560 46.668610 79.982651
234 2 1  0.000000 54.588558 46.683453 79.983475
235 2 1  0.000000 56.110874 46.680080 79.995987
236 2 1  0.000000 57.671371 46.650906 80.001572
237 2 1  0.000000 59.224148 46.662365 79.997223
238 2 1  0.000000 60.742668 46.657452 79.987167
239 2 1  0.000000 62.283466 46.686550 79.992828
240 2 1  0.000000 63.815235 46.647678 80.013199
241 2 1  0.000000 65.378021 46.676083 79.990402
242 2 1  0.000000 66.922516 46.654243 80.013702
243 2 1  0.000000 68.431404 46.679844 79.988235
244 2 1  0.000000 70.002991 46.685482 79.984360
245 2 1  0.000000 71.541901 46.670979 80.009933
246 2 1  0.000000 73.066521 46.671780 79.987762
247 2 1  0.000000 74.609619 46.672131 79.985626
248 2 1  0.000000 76.131126 46.667583 80.016342
249 2 1  0.000000 77.686394 46.659344 80.015808
250 2 1  0.000000 79.228905 46.670460 80.015152
251 2 1  0.000000 80.757362 46.652493 80.009964
252 2 1  0.000000 82.329620 46.674664 79.983887
253 2 1  0.000000 83.863235 46.682293 79.983505
254 2 1  0.000000 85.409492 46.661709 79.993607
255 2 1  0.000000 86.939278 46.680058 79.991730
256 2 1  0.000000 88.481110 46.654819 79.992676
257 2 1  0.000000 90.003349 46.651196 79.996445
258 2 1  0.000000 91.559265 46.653530 79.987976
259 2 1  0.000000 93.110229 46.647919 79.992462
260 2 1  0.000000 94.633766 46.683838 79.991974
261 2 1  0.000000 96.181236 46.679333 79.988342
262 2 1  0.000000 97.692749 46.655659 79.992737
263 2 1  0.000000 99.245476 46.674412 79.978943
264 2 1  0.000000 100.785988 46.685459 80.007004
265 2 1  0.000000 102.327705 46.664799 80.000397
266 2 1  0.000000 103.867432 46.686222 79.998459
267 2 1  0.000000 105.413597 46.667385 79.992477
268 2 1  0.000000 106.966766 46.647297 80.010208
269 2 1  0.000000 108.491341 46.668713 80.014053
270 2 1  0.000000 110.024734 46.671291 80.006958
271 2 1  0.000000 111.561600 46.677151 79.981552
272 2 1  0.000000 113.094719 46.663570 80.014206
273 2 1  0.000000 114.641472 46.649578 79.981125
274 2 1  0.000000 116.203430 46.684498 79.983566
275 2 1  0.000000 117.747101 46.679775 80.018967
276 2 1  0.000000 119.274689 46.671757 79.986496
277 2 1  0.000000 120.818794 46.687252 80.006699
278 2 1  0.000000 122.354073 46.649715 80.004776
279 2 1  0.000000 123.894646 46.661228 79.983932
280 2 1  0.000000 125.427895 46.678181 80.017807
281 2 1  0.000000 126.951027 46.672916 80.004745
282 2 1  0.000000 128.503281 46.671803 80.016586
283 2 1  0.000000 130.064911 46.645924 80.010834
284 2 1  0.000000 131.581757 46.663097 79.988297
285 2 1  0.000000 133.119110 46.685833 80.001160
286 2 1  0.000000 134.658218 46.682568 80.018112
287 2 1  0.000000 136.225830 46.667065 80.006851
288 2 1  0.000000 137.747650 46.680172 80.017365
289 2 1  0.000000 139.309998 46.674854 79.980011
290 2 1  0.000000 140.850204 46.653667 80.011932
291 2 1  0.000000 142.363693 46.668850 79.983047
292 2 1  0.000000 143.910431 46.657963 80.018448
293 2 1  0.000000 145.457794 46.649059 79.989426
294 2 1  0.000000 146.974945 46.686581 79.990707
295 2 1  0.000000 148.516800 46.687450 80.000565
296 2 1  0.000000 150.062408 46.680660 80.004028
297 2 1  0.000000 151.618103 46.646618 80.011276
298 2 1  0.000000 153.132004 46.649670 80.004257
299 2 1  0.000000 154.702606 46.687737 79.997879
300 2 1  0.000000 156.223251 46.669132 79.997971
301 3 1  0.000000  3.775695 60.000195 80.001297
302 3 1  0.000000  5.299845 59.990784 80.005127
303 3 1  0.000000  6.839280 60.006760 79.991074
304 3 1  0.000000  8.382442 59.989517 79.993378
305 3 1  0.000000  9.950886 59.981422 80.015366
306 3 1  0.000000 11.490148 60.008507 79.999969
307 3 1  0.000000 13.000707 60.000851 79.997604
308 3 1  0.000000 14.534156 60.016998 80.009171
309 3 1  0.000000 16.070391 60.014648 79.982277
310 3 1  0.000000 17.643814 60.016129 79.990051
311 3 1  0.000000 19.186640 60.016586 80.016434
312 3 1  0.000000 20.705959 60.008270 79.983124
313 3 1  0.000000 22.237825 60.000710 80.009613
314 3 1  0.000000 23.773865 60.003700 80.011063
315 3 1  0.000000 25.314157 59.995338 80.005310
316 3 1  0.000000 26.866032 59.981758 79.980026
317 3 1  0.000000 28.418701 59.992210 80.012451
318 3 1  0.000000 29.947861 59.983253 80.018967
319 3 1  0.000000 31.478374 60.000717 79.990738
320 3 1  0.000000 33.020451 59.996681 80.019073
321 3 1  0.000000 34.581532 59.989235 79.981644
322 3 1  0.000000 36.093723 60.005699 80.006912
323 3 1  0.000000 37.649658 59.982216 80.007431
324 3 1  0.000000 39.208473 60.006771 80.009796
325 3 1  0.000000 40.748600 60.008095 79.998703
326 3 1  0.000000 42.283878 59.992691 79.997772
327 3 1  0.000000 43.797043 60.006130 79.981880
328 3 1  0.000000 45.341438 59.997391 80.005295
329 3 1  0.000000 46.882576 60.018059 80.013062
330 3 1  0.000000 48.420876 59.993233 79.999603
331 3 1  0.000000 49.974514 60.003799 80.020172
332 3 1  0.000000 51.501446 60.007156 80.011032
333 3 1  0.000000 53.032822 60.009178 80.015701
334 3 1  0.000000 54.585354 60.014847 80.002090
335 3 1  0.000000 56.130974 60.011154 80.000305
336 3 1  0.000000 57.656994 59.996788 79.995163
337 3 1  0.000000 59.224495 59.991074 80.007935
338 3 1  0.000000 60.731991 59.980812 80.016876
339 3 1  0.000000 62.302795 59.989559 80.008865
340 3 1  0.000000 63.821297 60.010254 80.007843
341 3 1  0.000000 65.360016 59.994362 79.995972
342 3 1  0.000000 66.891350 60.005760 79.986420
343 3 1  0.000000 68.469109 60.003685 80.003448
344 3 1  0.000000 70.003716 60.000923 79.978943
345 3 1  0.000000 71.537643 60.002563 80.002365
346 3 1  0.000000 73.081261 60.004097 80.011261
347 3 1  0.000000 74.610840 60.014343 79.984116
348 3 1  0.000000 76.135345 59.992226 80.004028
349 3 1  0.000000 77.710724 59.981667 79.983856
350 3 1  0.000000 79.216698 59.997467 79.999969
351 3 1  0.000000 80.777306 60.020882 79.985687
352 3 1  0.000000 82.322502 60.009064 80.007477
353 3 1  0.000000 83.856216 59.988243 79.995331
354 3 1  0.000000 85.378593 60.009659 79.998489
355 3 1  0.000000 86.918411 59.983780 79.994125
356 3 1  0.000000 88.479721 59.998016 80.013962
357 3 1  0.000000 90.016068 60.003593 80.006104
358 3 1  0.000000 91.529358 59.994164 80.013107
359 3 1  0.000000 93.081947 59.980141 80.004608
360 3 1  0.000000 94.636993 60.005440 79.984360
361 3 1  0.000000 96.170029 60.002632 79.983780
362 3 1  0.000000 97.716812 60.005768 80.001640
363 3 1  0.000000 99.236450 59.981171 80.010208
364 3 1  0.000000 100.805611 59.984612 80.011398
365 3 1  0.000000 102.345108 59.988945 79.987091
366 3 1  0.000000 103.875832 59.980804 79.995766
367 3 1  0.000000 105.392349 59.997185 80.013840
368 3 1  0.000000 106.933449 59.997120 80.006485
369 3 1  0.000000 108.491699 60.012627 80.000717
370 3 1  0.000000 110.028038 59.987839 79.979248
371 3 1  0.000000 111.586784 60.003189 79.995651
372 3 1  0.000000 113.118622 59.999306 79.998062
373 3 1  0.000000 114.661804 59.983078 80.007294
374 3 1  0.000000 116.197327 60.014130 80.000076
375 3 1  0.000000 117.736145 59.988228 80.016525
376 3 1  0.000000 119.286873 60.011452 79.990051
377 3 1  0.000000 120.798088 60.004196 80.017593
378 3 1  0.000000 122.336212 59.983215 80.004501
379 3 1  0.000000 123.897354 59.981697 79.980789
380 3 1  0.000000 125.434090 60.012482 79.984375
381 3 1  0.000000 126.966179 60.016403 80.019974
382 3 1  0.000000 128.501938 60.019722 80.009483
383 3 1  0.000000 130.045792 60.003120 80.010574
384 3 1  0.000000 131.593811 59.979332 80.016708
385 3 1  0.000000 133.140137 59.988731 79.993591
386 3 1  0.000000 134.657211 60.015816 79.986420
387 3 1  0.000000 136.225189 59.998383 79.995575
388 3 1  0.000000 137.737381 60.003937 80.009918
389 3 1  0.000000 139.276886 59.999039 80.011658
390 3 1  0.000000 140.823120 60.006332 80.011414
391 3 1  0.000000 142.360794 60.003372 79.989243
392 3 1  0.000000 143.902237 59.981480 80.003815
393 3 1  0.000000 145.456940 60.020477 79.987656
394 3 1  0.000000 146.974762 60.012840 80.011597
395 3 1  0.000000 148.516891 59.990303 79.988708
396 3 1  0.000000 150.050903 59.998024 80.007004
397 3 1  0.000000 151.609894 60.007179 79.984009
398 3 1  0.000000 153.154358 60.015739 80.017136
399 3 1  0.000000 154.700012 60.010666 79.996979
400 3 1  0.000000 156.235291 60.004059 79.990936
401 4 1  0.000000  3.778868 73.331093 80.002045
402 4 1  0.000000  5.293081 73.317146 80.002472
403 4 1  0.000000  6.863483 73.324257 80.000854
404 4 1  0.000000  8.374954 73.344238 79.981720
405 4 1  0.000000  9.946851 73.337379 79.996948
406 4 1  0.000000 11.488114 73.335274 80.013443
407 4 1  0.000000 13.001576 73.326180 79.999405
408 4 1  0.000000 14.531570 73.315376 80.004059
409 4 1  0.000000 16.099791 73.331520 80.012863
410 4 1  0.000000 17.613508 73.335823 79.993225
411 4 1  0.000000 19.181822 73.351067 79.987564
412 4 1  0.000000 20.692005 73.317406 80.010406
413 4 1  0.000000 22.242548 73.326149 79.990326
414 4 1  0.000000 23.803673 73.345047 80.012421
415 4 1  0.000000 25.321928 73.341011 79.991058
416 4 1  0.000000 26.867985 73.336967 80.007309
417 4 1  0.000000 28.428137 73.322655 80.001846
418 4 1  0.000000 29.968420 73.320473 80.013138
419 4 1  0.000000 31.500257 73.323708 80.005585
420 4 1  0.000000 33.030308 73.347786 80.003006
421 4 1  0.000000 34.579178 73.330879 79.985641
422 4 1  0.000000 36.093060 73.324867 79.996582
423 4 1  0.000000 37.631592 73.347702 80.012558
424 4 1  0.000000 39.186069 73.313225 79.979156
425 4 1  0.000000 40.717804 73.318748 79.996338
426 4 1  0.000000 42.274570 73.335320 80.001389
427 4 1  0.000000 43.801056 73.321167 79.991547
428 4 1  0.000000 45.348358 73.324287 80.005005
429 4 1  0.000000 46.880211 73.324013 80.008591
430 4 1  0.000000 48.417458 73.316780 80.018585
431 4 1  0.000000 49.962177 73.351463 79.983269
432 4 1  0.000000 51.505363 73.343239 80.014755
433 4 1  0.000000 53.056702 73.321693 79.992004
434 4 1  0.000000 54.587822 73.336189 79.981567
435 4 1  0.000000 56.150711 73.328407 80.004913
436 4 1  0.000000 57.680077 73.334770 80.011002
437 4 1  0.000000 59.212818 73.313438 80.004868
438 4 1  0.000000 60.749466 73.323418 80.008652
439 4 1  0.000000 62.285374 73.347679 79.979446
440 4 1  0.000000 63.810390 73.318901 79.994598
441 4 1  0.000000 65.374756 73.349693 79.990891
442 4 1  0.000000 66.891212 73.324791 79.986053
443 4 1  0.000000 68.436310 73.329079 80.000000
444 4 1  0.000000 69.970566 73.349770 80.020233
445 4 1  0.000000 71.544182 73.342949 79.982628
446 4 1  0.000000 73.087715 73.344093 79.984802
447 4 1  0.000000 74.619949 73.326073 80.018410
448 4 1  0.000000 76.150818 73.348961 79.999573
449 4 1  0.000000 77.669556 73.330589 80.009598
450 4 1  0.000000 79.247841 73.347572 80.019501
451 4 1  0.000000 80.750931 73.336113 80.011414
452 4 1  0.000000 82.320282 73.327675 80.009415
453 4 1  0.000000 83.854584 73.326332 80.018158
454 4 1  0.000000 85.376717 73.351082 79.989151
455 4 1  0.000000 86.944939 73.314461 80.006149
456 4 1  0.000000 88.463783 73.341187 79.989868
457 4 1  0.000000 89.999870 73.348473 79.996780
458 4 1  0.000000 91.547112 73.347847 79.986954
459 4 1  0.000000 93.086784 73.322136 80.020370
460 4 1  0.000000 94.612755 73.327492 79.985199
461 4 1  0.000000 96.173828 73.330574 80.014008
462 4 1  0.000000 97.700508 73.320671 79.985573
463 4 1  0.000000 99.261520 73.317314 80.005272
464 4 1  0.000000 100.797783 73.320900 79.997650
465 4 1  0.000000 102.334351 73.325539 80.013870
466 4 1  0.000000 103.882370 73.314781 79.987366
467 4 1  0.000000 105.422798 73.322014 79.980103
468 4 1  0.000000 106.964890 73.341606 80.016495
469 4 1  0.000000 108.510933 73.331902 79.979996
470 4 1  0.000000 110.043343 73.350288 79.980377
471 4 1  0.000000 111.567406 73.328651 79.986298
472 4 1  0.000000 113.122551 73.333702 80.013550
473 4 1  0.000000 114.664513 73.324623 80.006058
474 4 1  0.000000 116.176170 73.321693 80.014252
475 4 1  0.000000 117.735519 73.344948 80.006302
476 4 1  0.000000 119.286484 73.328514 80.016708
477 4 1  0.000000 120.791420 73.332695 80.010818
478 4 1  0.000000 122.345642 73.348000 80.007950
479 4 1  0.000000 123.887161 73.320641 79.997574
480 4 1  0.000000 125.413750 73.334923 79.996429
481 4 1  0.000000 126.974983 73.334969 79.992294
482 4 1  0.000000 128.503342 73.343697 80.005737
483 4 1  0.000000 130.067627 73.331139 80.011887
484 4 1  0.000000 131.589294 73.352592 79.988113
485 4 1  0.000000 133.122009 73.333046 80.013023
486 4 1  0.000000 134.652100 73.332405 79.985168
487 4 1  0.000000 136.219070 73.345299 79.987900
488 4 1  0.000000 137.765381 73.328133 79.996002
489 4 1  0.000000 139.299606 73.327156 80.008072
490 4 1  0.000000 140.824860 73.321526 80.018402
491 4 1  0.000000 142.364151 73.353447 80.014771
492 4 1  0.000000 143.908340 73.325142 80.014282
493 4 1  0.000000 145.438873 73.326897 80.018356
494 4 1  0.000000 146.991898 73.318382 79.998245
495 4 1  0.000000 148.527588 73.314949 79.982025
496 4 1  0.000000 150.055984 73.334740 79.982971
497 4 1  0.000000 151.608521 73.350227 79.995316
498 4 1  0.000000 153.168350 73.350060 80.020233
499 4 1  0.000000 154.690002 73.315804 80.006058
500 4 1  0.000000 156.250412 73.345787 80.013382
501 5 1  0.000000  3.766555 86.683922 80.005585
502 5 1  0.000000  5.319588 86.653709 80.013138
503 5 1  0.000000  6.850205 86.663750 80.012527
504 5 1  0.000000  8.378749 86.674675 79.992111
505 5 1  0.000000  9.915250 86.662346 79.989563
506 5 1  0.000000 11.461435 86.669960 80.000366
507 5 1  0.000000 13.029767 86.683937 79.993561
508 5 1  0.000000 14.541142 86.660912 80.012772
509 5 1  0.000000 16.097021 86.657951 80.019684
510 5 1  0.000000 17.626331 86.680977 80.014786
511 5 1  0.000000 19.175941 86.681404 80.019928
512 5 1  0.000000 20.697052 86.660576 79.995071
513 5 1  0.000000 22.269512 86.650429 80.011963
514 5 1  0.000000 23.774012 86.672432 80.004303
515 5 1  0.000000 25.325949 86.672295 79.991409
516 5 1  0.000000 26.885256 86.672508 79.998825
517 5 1  0.000000 28.402952 86.656364 80.000900
518 5 1  0.000000 29.954918 86.687431 80.016937
519 5 1  0.000000 31.486568 86.647545 80.010239
520 5 1  0.000000 33.024025 86.684914 79.993301
521 5 1  0.000000 34.576736 86.667641 80.017548
522 5 1  0.000000 36.109230 86.674118 79.981522
523 5 1  0.000000 37.647427 86.664162 79.986084
524 5 1  0.000000 39.206284 86.676369 80.010834
525 5 1  0.000000 40.724422 86.653740 80.001465
526 5 1  0.000000 42.284843 86.668312 79.987312
527 5 1  0.000000 43.791916 86.679741 79.999832
528 5 1  0.000000 45.345493 86.652138 80.012268
529 5 1  0.000000 46.886166 86.659401 80.003418
530 5 1  0.000000 48.449718 86.682472 79.995071
531 5 1  0.000000 49.954723 86.669533 79.995087
532 5 1  0.000000 51.496986 86.654930 79.992645
533 5 1  0.000000 53.063259 86.646095 80.019775
534 5 1  0.000000 54.602661 86.663429 80.000702
535 5 1  0.000000 56.117977 86.673515 80.001144
536 5 1  0.000000 57.673996 86.683174 79.987915
537 5 1  0.000000 59.206413 86.686287 79.983002
538 5 1  0.000000 60.756557 86.659874 80.006332
539 5 1  0.000000 62.278706 86.647682 79.983017
540 5 1  0.000000 63.847538 86.659309 79.997177
541 5 1  0.000000 65.366745 86.651817 80.003235
542 5 1  0.000000 66.909424 86.646172 79.999672
543 5 1  0.000000 68.465462 86.672218 80.015976
544 5 1  0.000000 70.009415 86.674812 80.015076
545 5 1  0.000000 71.542038 86.672798 79.987610
546 5 1  0.000000 73.070648 86.674919 80.014801
547 5 1  0.000000 74.597687 86.660637 80.005646
548 5 1  0.000000 76.144569 86.686958 79.997849
549 5 1  0.000000 77.701447 86.675285 79.990585
550 5 1  0.000000 79.241920 86.668266 79.986130
551 5 1  0.000000 80.758720 86.681099 80.005386
552 5 1  0.000000 82.327225 86.674736 79.983719
553 5 1  0.000000 83.849091 86.685127 79.982681
554 5 1  0.000000 85.394127 86.672935 79.993057
555 5 1  0.000000 86.922150 86.670280 80.005676
556 5 1  0.000000 88.461700 86.672325 79.991531
557 5 1  0.000000 90.006721 86.671791 79.996964
558 5 1  0.000000 91.534378 86.671928 80.010941
559 5 1  0.000000 93.097816 86.668571 80.008179
560 5 1  0.000000 94.646797 86.677208 80.002914
561 5 1  0.000000 96.184578 86.665688 80.005219
562 5 1  0.000000 97.708672 86.662743 80.018097
563 5 1  0.000000 99.250778 86.649147 79.998383
564 5 1  0.000000 100.784599 86.661079 79.998856
565 5 1  0.000000 102.338387 86.665749 79.993362
566 5 1  0.000000 103.865326 86.671890 80.014542
567 5 1  0.000000 105.394333 86.652748 79.996094
568 5 1  0.000000 106.953087 86.659676 79.984863
569 5 1  0.000000 108.479828 86.661552 79.994659
570 5 1  0.000000 110.034859 86.650948 80.000092
571 5 1  0.000000 111.558464 86.661629 79.983505
572 5 1  0.000000 113.128746 86.681923 79.998505
573 5 1  0.000000 114.650299 86.646584 79.984909
574 5 1  0.000000 116.171761 86.657722 80.020370
575 5 1  0.000000 117.721703 86.664131 80.004440
576 5 1  0.000000 119.282600 86.668495 80.000885
577 5 1  0.000000 120.793098 86.657188 80.012436
578 5 1  0.000000 122.351761 86.677635 79.980743
579 5 1  0.000000 123.904053 86.667305 80.004044
580 5 1  0.000000 125.432121 86.685127 80.004089
581 5 1  0.000000 126.984200 86.649590 80.013947
582 5 1  0.000000 128.508163 86.683601 79.983871
583 5 1  0.000000 130.054276 86.668861 79.986343
584 5 1  0.000000 131.601776 86.684837 79.980286
585 5 1  0.000000 133.110962 86.683907 80.016937
586 5 1  0.000000 134.651337 86.654457 79.984146
587 5 1  0.000000 136.220612 86.670052 80.004135
588 5 1  0.000000 137.758026 86.665718 80.009964
589 5 1  0.000000 139.278229 86.648232 80.007904
590 5 1  0.000000 140.813995 86.677986 79.985138
591 5 1  0.000000 142.377701 86.671852 79.995300
592 5 1  0.000000 143.902145 86.672920 80.016922
593 5 1  0.000000 145.442551 86.647652 79.996964
594 5 1  0.000000 146.993729 86.646263 80.012970
595 5 1  0.000000 148.522522 86.653709 79.985825
596 5 1  0.000000 150.061462 86.680229 80.014877
597 5 1  0.000000 151.614471 86.662300 79.992340
598 5 1  0.000000 153.164474 86.654366 80.001335
599 5 1  0.000000 154.708786 86.663925 80.006912
600 5 1  0.000000 156.230743 86.684441 79.990646
601 6 1  0.000000  3.785760 99.993942 79.995499
602 6 1  0.000000  5.311322 99.997101 79.996124
603 6 1  0.000000  6.839860 100.009491 80.012283
604 6 1  0.000000  8.392464 99.993057 79.986145
605 6 1  0.000000  9.932961 99.991791 80.020142
606 6 1  0.000000 11.469895 100.000320 79.986206
607 6 1  0.000000 13.010009 99.983505 79.992661
608 6 1  0.000000 14.559881 99.997726 79.989960
609 6 1  0.000000 16.082823 100.018509 80.012314
610 6 1  0.000000 17.621538 99.991257 80.003021
611 6 1  0.000000 19.164503 100.001282 80.000595
612 6 1  0.000000 20.726213 99.980148 79.998077
613 6 1  0.000000 22.229595 100.008102 79.991196
614 6 1  0.000000 23.798283 99.985306 80.016708