Created with TaichiMD

1000 atoms
990 bonds
  0 angles
  0 dihedrals
  0 impropers

1 atom types
1 bond types
0 angle types
0 dihedral types
0 improper types

-80.00000  80.00000 xlo xhi
-80.00000  80.00000 ylo yhi
-80.00000  80.00000 zlo zhi

Masses

1  1.0000

Atoms

  1 0 1  0.000000 102.926910 20.714722 73.192986
  2 0 1  0.000000 104.237282 20.474323 72.325684
  3 0 1  0.000000 105.538223 19.859692 72.967148
  4 0 1  0.000000 105.506882 18.272997 73.104042
  5 0 1  0.000000 106.157738 16.924925 73.013367
  6 0 1  0.000000 105.128578 15.864799 73.425034
  7 0 1  0.000000 103.667587 15.402635 74.035980
  8 0 1  0.000000 103.427940 13.892170 73.561478
  9 0 1  0.000000 102.392975 12.916856 74.204582
 10 0 1  0.000000 102.080727 11.903157 72.943405
 11 0 1  0.000000 102.598976 10.614903 72.995941
 12 0 1  0.000000 101.744415  9.462419 72.436699
 13 0 1  0.000000 101.554146  8.464453 73.649384
 14 0 1  0.000000 100.648247  7.650747 73.885513
 15 0 1  0.000000 99.772591  6.332390 73.807541
 16 0 1  0.000000 99.545662  4.907082 73.995132
 17 0 1  0.000000 98.215950  5.828159 73.752464
 18 0 1  0.000000 96.959511  6.165669 74.341087
 19 0 1  0.000000 95.518410  6.306627 74.296974
 20 0 1  0.000000 94.635323  6.558091 73.209480
 21 0 1  0.000000 93.612854  6.066913 72.112198
 22 0 1  0.000000 94.300552  7.322539 71.853554
 23 0 1  0.000000 94.139954  8.504293 71.109650
 24 0 1  0.000000 94.420105  9.974584 70.863823
 25 0 1  0.000000 92.897034  9.841037 70.974014
 26 0 1  0.000000 93.332062 11.425080 71.373466
 27 0 1  0.000000 94.016342 12.270868 70.312386
 28 0 1  0.000000 93.618439 13.451818 70.904823
 29 0 1  0.000000 92.719650 14.581676 71.088356
 30 0 1  0.000000 91.680046 14.281333 69.985062
 31 0 1  0.000000 90.662354 15.339664 69.658630
 32 0 1  0.000000 91.419739 16.702642 69.904037
 33 0 1  0.000000 90.033546 17.354156 70.553276
 34 0 1  0.000000 89.363586 17.996918 71.894684
 35 0 1  0.000000 88.483467 16.792883 71.760880
 36 0 1  0.000000 87.400810 17.356329 72.446457
 37 0 1  0.000000 86.832771 15.923319 72.837387
 38 0 1  0.000000 85.638428 14.627748 72.461014
 39 0 1  0.000000 84.800041 14.545722 71.281807
 40 0 1  0.000000 85.762405 13.996167 72.062836
 41 0 1  0.000000 86.851418 12.670493 71.802734
 42 0 1  0.000000 87.314163 11.504896 70.836227
 43 0 1  0.000000 88.051361 10.120078 71.065865
 44 0 1  0.000000 88.682495  9.409409 69.598831
 45 0 1  0.000000 89.542992  8.109209 69.896523
 46 0 1  0.000000 88.949348  6.857146 69.174858
 47 0 1  0.000000 87.981636  5.524672 68.742096
 48 0 1  0.000000 88.201706  5.134722 70.277580
 49 0 1  0.000000 87.106293  4.237718 70.584068
 50 0 1  0.000000 86.886505  2.781161 71.394127
 51 0 1  0.000000 86.462250  2.236080 72.867867
 52 0 1  0.000000 86.433983  0.708878 73.170586
 53 0 1  0.000000 84.912056  0.204909 72.959854
 54 0 1  0.000000 83.658463 -0.467259 72.952797
 55 0 1  0.000000 83.110596 -0.325832 71.528831
 56 0 1  0.000000 83.310837 -1.507232 70.808975
 57 0 1  0.000000 83.285423 -2.465453 69.502556
 58 0 1  0.000000 84.901596 -2.635834 69.709793
 59 0 1  0.000000 85.999443 -2.627083 68.308716
 60 0 1  0.000000 86.596451 -3.015552 67.006111
 61 0 1  0.000000 85.647621 -4.239166 66.487839
 62 0 1  0.000000 86.281242 -4.935752 65.136391
 63 0 1  0.000000 86.736488 -6.350815 64.399979
 64 0 1  0.000000 86.801064 -7.791309 65.028168
 65 0 1  0.000000 86.803604 -8.246854 66.568062
 66 0 1  0.000000 86.183311 -7.946708 67.776123
 67 0 1  0.000000 86.998962 -7.489125 69.011818
 68 0 1  0.000000 87.666428 -7.520733 70.524834
 69 0 1  0.000000 87.430115 -7.101516 72.097847
 70 0 1  0.000000 86.429321 -6.055623 72.187485
 71 0 1  0.000000 86.066055 -5.804353 73.670288
 72 0 1  0.000000 86.549568 -4.422921 73.599266
 73 0 1  0.000000 84.989853 -4.673917 73.948540
 74 0 1  0.000000 84.359360 -3.884924 74.936325
 75 0 1  0.000000 84.071762 -4.745778 76.150955
 76 0 1  0.000000 83.321533 -5.354527 77.328140
 77 0 1  0.000000 83.815292 -3.755161 77.422600
 78 0 1  0.000000 83.924408 -2.581664 78.569160
 79 0 1  0.000000 83.803902 -2.130581 80.145935
 80 0 1  0.000000 83.921112 -1.742764 81.665131
 81 0 1  0.000000 83.744774 -0.622326 82.953995
 82 0 1  0.000000 83.049973  0.634444 82.879494
 83 0 1  0.000000 81.740524  0.510337 82.424515
 84 0 1  0.000000 80.527489 -0.248439 82.093803
 85 0 1  0.000000 79.779831  1.057961 81.724205
 86 0 1  0.000000 78.485558  0.868551 81.061928
 87 0 1  0.000000 78.039391  2.372059 80.989403
 88 0 1  0.000000 77.634918  4.081582 80.950455
 89 0 1  0.000000 76.920113  5.357777 81.754120
 90 0 1  0.000000 76.067886  6.053778 80.707634
 91 0 1  0.000000 76.254578  7.217079 79.605896
 92 0 1  0.000000 76.497063  6.456188 78.039825
 93 0 1  0.000000 75.872452  5.254086 77.549644
 94 0 1  0.000000 74.263947  5.436862 77.623466
 95 0 1  0.000000 73.164230  6.294276 76.805847
 96 0 1  0.000000 72.734871  4.861525 76.459915
 97 0 1  0.000000 71.876244  5.862993 75.300598
 98 0 1  0.000000 73.203392  6.021888 74.503853
 99 0 1  0.000000 72.962402  5.656999 72.983711
100 0 1  0.000000 74.140739  6.847703 73.161293
101 1 1  0.000000 116.287254 27.601658 83.320320
102 1 1  0.000000 115.044716 27.794561 82.696358
103 1 1  0.000000 113.850204 26.805712 82.827499
104 1 1  0.000000 112.631737 28.033022 82.615593
105 1 1  0.000000 111.260223 27.472462 81.968140
106 1 1  0.000000 110.433678 28.740696 81.797813
107 1 1  0.000000 109.153992 28.474800 80.726173
108 1 1  0.000000 108.020203 28.559330 79.545807
109 1 1  0.000000 107.625946 28.111729 78.098419
110 1 1  0.000000 106.258064 28.424446 77.635857
111 1 1  0.000000 104.901810 28.108927 78.172546
112 1 1  0.000000 103.454224 27.735352 78.178078
113 1 1  0.000000 102.387428 26.995432 78.959679
114 1 1  0.000000 101.095772 27.483452 78.751137
115 1 1  0.000000 101.001274 29.051426 78.193756
116 1 1  0.000000 101.104744 29.918007 79.419083
117 1 1  0.000000 99.621956 29.508087 79.207222
118 1 1  0.000000 98.301888 30.176456 78.996460
119 1 1  0.000000 97.475601 30.885437 80.248245
120 1 1  0.000000 96.434776 30.323063 81.267319
121 1 1  0.000000 96.250244 31.715164 81.744026
122 1 1  0.000000 95.624954 32.748074 82.472656
123 1 1  0.000000 95.368729 31.694878 83.596825
124 1 1  0.000000 94.141968 31.798431 84.693909
125 1 1  0.000000 92.937767 31.101652 84.348671
126 1 1  0.000000 92.365623 32.543095 84.252319
127 1 1  0.000000 91.207664 32.192429 84.980164
128 1 1  0.000000 90.657494 31.688898 86.289116
129 1 1  0.000000 89.256256 32.289543 86.222008
130 1 1  0.000000 88.139641 32.141838 85.138557
131 1 1  0.000000 87.426323 31.429754 83.966652
132 1 1  0.000000 86.274208 32.414742 83.552139
133 1 1  0.000000 85.270821 31.386187 83.937050
134 1 1  0.000000 83.669052 31.343287 83.602608
135 1 1  0.000000 82.368820 30.597761 82.787888
136 1 1  0.000000 81.229652 31.569050 83.172676
137 1 1  0.000000 80.326889 30.413883 82.884979
138 1 1  0.000000 78.978477 30.158524 83.697273
139 1 1  0.000000 78.299141 29.625675 82.375458
140 1 1  0.000000 77.433525 28.501535 81.639481
141 1 1  0.000000 76.052559 29.011894 81.313049
142 1 1  0.000000 76.299187 30.156990 80.487953
143 1 1  0.000000 75.822174 31.620440 80.268166
144 1 1  0.000000 74.873932 32.711342 80.928291
145 1 1  0.000000 75.973900 33.488094 80.043274
146 1 1  0.000000 74.503197 33.948235 80.418365
147 1 1  0.000000 73.654442 35.230762 80.094780
148 1 1  0.000000 73.676582 37.018284 80.084351
149 1 1  0.000000 74.797714 38.189758 79.833237
150 1 1  0.000000 76.409790 38.422142 79.889648
151 1 1  0.000000 76.641083 39.763397 79.921707
152 1 1  0.000000 77.917931 39.602528 80.863945
153 1 1  0.000000 77.192612 40.797798 81.732346
154 1 1  0.000000 76.605392 41.485703 83.114365
155 1 1  0.000000 76.046989 40.925564 84.380287
156 1 1  0.000000 76.392021 39.453896 84.649200
157 1 1  0.000000 76.104355 40.145863 86.005859
158 1 1  0.000000 76.630974 39.784542 87.443184
159 1 1  0.000000 75.340332 39.342140 88.031296
160 1 1  0.000000 73.862701 39.599144 87.678291
161 1 1  0.000000 73.330818 39.672806 89.192261
162 1 1  0.000000 72.341621 40.481445 89.763443
163 1 1  0.000000 73.367096 40.645901 91.032524
164 1 1  0.000000 74.443459 41.593903 91.324883
165 1 1  0.000000 74.613968 42.314346 92.633026
166 1 1  0.000000 74.123253 43.234291 91.519562
167 1 1  0.000000 73.450912 44.817730 91.682350
168 1 1  0.000000 72.999046 44.718750 90.138008
169 1 1  0.000000 71.645088 45.028225 89.359451
170 1 1  0.000000 71.980690 45.295708 87.964867
171 1 1  0.000000 73.339882 45.157421 87.490913
172 1 1  0.000000 74.831367 45.246307 86.961609
173 1 1  0.000000 74.701012 43.766224 87.073769
174 1 1  0.000000 76.066597 44.284184 86.579018
175 1 1  0.000000 76.961014 45.009335 85.617096
176 1 1  0.000000 78.077873 45.340618 84.704033
177 1 1  0.000000 79.405663 44.350826 84.360229
178 1 1  0.000000 80.048073 42.994293 83.967842
179 1 1  0.000000 80.552483 42.677441 82.454391
180 1 1  0.000000 81.876915 42.894321 81.441528
181 1 1  0.000000 81.285744 44.371365 81.653503
182 1 1  0.000000 80.319885 45.069271 80.815788
183 1 1  0.000000 78.710869 45.514637 80.834099
184 1 1  0.000000 77.656189 46.645439 81.107704
185 1 1  0.000000 76.713287 47.148735 80.235191
186 1 1  0.000000 76.615654 48.500706 81.094208
187 1 1  0.000000 76.603218 49.747929 80.150993
188 1 1  0.000000 77.333900 50.969513 80.862808
189 1 1  0.000000 77.133446 51.953701 79.705025
190 1 1  0.000000 77.531395 53.563957 79.958916
191 1 1  0.000000 77.196129 54.878937 80.540657
192 1 1  0.000000 78.274353 55.235424 79.709541
193 1 1  0.000000 79.290718 56.262150 79.429260
194 1 1  0.000000 80.683754 55.729092 79.880737
195 1 1  0.000000 81.815010 56.718220 80.154694
196 1 1  0.000000 82.663040 56.754360 81.410164
197 1 1  0.000000 83.320335 57.628654 80.029114
198 1 1  0.000000 84.524445 57.327053 79.651909
199 1 1  0.000000 85.616104 57.904213 80.740585
200 1 1  0.000000 86.817436 56.951847 80.648773
201 2 1  0.000000 109.312790 37.032661 63.328701
202 2 1  0.000000 110.190018 36.584103 64.619682
203 2 1  0.000000 108.808456 36.924297 63.933460
204 2 1  0.000000 108.986015 36.004173 65.028831
205 2 1  0.000000 108.808006 34.419064 65.589157
206 2 1  0.000000 108.101974 33.319389 64.784195
207 2 1  0.000000 106.772697 33.424213 64.152901
208 2 1  0.000000 105.320763 32.857246 63.866261
209 2 1  0.000000 104.070854 32.216904 64.046700
210 2 1  0.000000 104.579651 31.656130 65.404648
211 2 1  0.000000 104.365501 31.619150 66.954010
212 2 1  0.000000 103.035431 32.069374 67.291283
213 2 1  0.000000 103.499397 33.678085 67.706856
214 2 1  0.000000 103.129082 35.014351 68.310997
215 2 1  0.000000 104.111359 35.140507 69.547684
216 2 1  0.000000 104.647820 36.343040 68.820419
217 2 1  0.000000 104.246979 37.532734 69.837280
218 2 1  0.000000 104.320366 38.952110 70.286057
219 2 1  0.000000 103.408134 39.646000 69.179695
220 2 1  0.000000 102.757820 41.055248 69.288353
221 2 1  0.000000 101.561699 40.989632 68.234955
222 2 1  0.000000 100.178917 40.647961 67.610374
223 2 1  0.000000 99.486618 41.398674 68.721581
224 2 1  0.000000 98.320320 41.846104 69.525436
225 2 1  0.000000 96.977722 41.731087 68.959991
226 2 1  0.000000 96.940582 42.752075 70.085754
227 2 1  0.000000 96.995422 43.873302 70.947044
228 2 1  0.000000 96.244751 45.199120 71.220062
229 2 1  0.000000 96.091774 46.137604 69.970940
230 2 1  0.000000 95.516838 46.943291 68.664307
231 2 1  0.000000 94.419472 46.804108 67.446007
232 2 1  0.000000 93.058685 47.815510 67.130112
233 2 1  0.000000 91.645737 47.784798 66.545303
234 2 1  0.000000 91.267342 47.184956 65.226349
235 2 1  0.000000 89.857079 47.127903 65.781601
236 2 1  0.000000 88.693779 46.301617 65.235481
237 2 1  0.000000 87.420273 46.884930 64.758217
238 2 1  0.000000 86.493111 48.005566 65.539482
239 2 1  0.000000 85.112259 47.932007 66.485954
240 2 1  0.000000 83.679573 47.781532 67.344315
241 2 1  0.000000 83.503815 46.443409 68.201347
242 2 1  0.000000 82.715591 46.545876 66.657890
243 2 1  0.000000 81.354073 46.900402 67.447548
244 2 1  0.000000 79.952240 46.166740 67.186958
245 2 1  0.000000 79.577431 47.671608 67.511948
246 2 1  0.000000 78.456879 47.810341 68.913261
247 2 1  0.000000 78.295364 48.777973 69.948494
248 2 1  0.000000 79.749794 48.802563 70.117599
249 2 1  0.000000 80.996048 48.066090 70.885773
250 2 1  0.000000 81.603523 46.862114 71.733704
251 2 1  0.000000 81.497238 45.542965 71.100685
252 2 1  0.000000 80.698456 44.509178 71.734131
253 2 1  0.000000 79.557907 44.861088 72.492462
254 2 1  0.000000 78.862831 43.455402 72.866882
255 2 1  0.000000 77.321991 42.966503 73.310425
256 2 1  0.000000 76.065247 42.205742 73.008362
257 2 1  0.000000 76.335350 42.784153 74.376495
258 2 1  0.000000 75.023209 43.106766 75.163162
259 2 1  0.000000 73.581848 43.220207 75.549187
260 2 1  0.000000 73.835052 44.807407 75.194191
261 2 1  0.000000 72.602875 45.703732 75.723274
262 2 1  0.000000 73.499107 46.847691 75.551369
263 2 1  0.000000 74.845406 47.306274 75.035110
264 2 1  0.000000 75.428749 48.257771 73.937271
265 2 1  0.000000 75.995934 49.721947 74.220421
266 2 1  0.000000 77.451103 49.294868 74.211998
267 2 1  0.000000 77.738625 50.596714 73.359688
268 2 1  0.000000 78.817650 51.554924 73.904388
269 2 1  0.000000 78.395477 52.495636 72.683334
270 2 1  0.000000 79.247108 53.950943 72.689362
271 2 1  0.000000 79.266197 55.038727 73.977455
272 2 1  0.000000 78.093086 55.933907 74.300476
273 2 1  0.000000 78.203094 56.496052 75.707245
274 2 1  0.000000 79.427895 57.366280 75.442223
275 2 1  0.000000 79.107933 58.863327 75.456123
276 2 1  0.000000 80.651474 59.488365 75.561264
277 2 1  0.000000 79.910042 60.741409 75.197090
278 2 1  0.000000 80.585831 61.787640 75.897430
279 2 1  0.000000 81.119179 61.795044 77.405739
280 2 1  0.000000 80.067894 62.270489 78.536980
281 2 1  0.000000 79.942703 61.341728 79.737076
282 2 1  0.000000 80.015366 60.652054 81.173164
283 2 1  0.000000 79.605080 61.150299 82.756325
284 2 1  0.000000 80.589951 60.357700 83.685524
285 2 1  0.000000 80.235764 60.506767 85.032066
286 2 1  0.000000 80.009705 59.285152 85.987251
287 2 1  0.000000 80.979698 59.323273 87.213463
288 2 1  0.000000 80.069908 58.960789 88.344284
289 2 1  0.000000 79.626404 59.966103 89.655022
290 2 1  0.000000 78.826965 58.953121 90.348022
291 2 1  0.000000 78.616287 57.536148 90.133331
292 2 1  0.000000 78.461151 56.015907 90.518059
293 2 1  0.000000 79.427101 55.681118 91.520370
294 2 1  0.000000 79.013687 54.233521 91.105194
295 2 1  0.000000 77.651451 53.763855 90.579895
296 2 1  0.000000 76.555069 53.147488 89.632820
297 2 1  0.000000 77.078400 52.856148 88.189354
298 2 1  0.000000 75.843033 52.841255 89.273888
299 2 1  0.000000 75.293839 51.836899 88.159142
300 2 1  0.000000 74.035332 51.092415 87.945671
301 3 1  0.000000 62.475464 68.250763 101.596077
302 3 1  0.000000 61.706299 66.990692 102.040611
303 3 1  0.000000 62.743595 65.900635 102.079315
304 3 1  0.000000 63.193027 64.879822 101.004875
305 3 1  0.000000 64.550476 64.934761 101.242706
306 3 1  0.000000 65.874069 65.380859 100.495384
307 3 1  0.000000 66.633072 66.575111 99.852547
308 3 1  0.000000 66.002380 66.354637 98.414764
309 3 1  0.000000 66.411270 65.923073 96.930977
310 3 1  0.000000 67.810242 65.298820 96.825211
311 3 1  0.000000 67.304420 66.431084 95.806908
312 3 1  0.000000 68.388214 65.571342 95.296532
313 3 1  0.000000 68.973572 65.301270 94.006866
314 3 1  0.000000 68.913895 64.333374 92.935631
315 3 1  0.000000 70.480354 64.348740 92.505302
316 3 1  0.000000 71.632004 64.060127 91.783936
317 3 1  0.000000 71.011169 63.851261 90.094139
318 3 1  0.000000 71.816338 64.765762 91.066986
319 3 1  0.000000 72.030128 65.738693 89.725151
320 3 1  0.000000 71.781136 67.264511 89.538010
321 3 1  0.000000 70.669983 67.397003 88.629478
322 3 1  0.000000 69.912331 67.883316 87.225052
323 3 1  0.000000 68.708481 66.881500 86.903252
324 3 1  0.000000 67.484253 66.469658 87.856781
325 3 1  0.000000 68.205383 65.247993 88.269653
326 3 1  0.000000 67.951302 64.553505 86.826027
327 3 1  0.000000 67.966911 62.874847 86.574112
328 3 1  0.000000 67.575844 61.576267 86.611305
329 3 1  0.000000 68.670403 60.881088 85.451279
330 3 1  0.000000 68.180084 59.392044 84.970833
331 3 1  0.000000 67.858658 58.262268 84.195099
332 3 1  0.000000 68.414925 57.974510 82.645233
333 3 1  0.000000 68.730789 56.547234 82.154007
334 3 1  0.000000 68.578987 55.031467 82.315338
335 3 1  0.000000 68.800812 53.824635 81.318245
336 3 1  0.000000 68.221817 53.222088 82.632317
337 3 1  0.000000 66.963516 52.577881 82.836769
338 3 1  0.000000 66.933113 51.089203 83.580048
339 3 1  0.000000 67.308060 50.150948 84.727821
340 3 1  0.000000 66.338974 48.971752 84.613533
341 3 1  0.000000 66.589828 47.516834 84.496689
342 3 1  0.000000 66.135529 46.025402 84.226013
343 3 1  0.000000 64.853531 46.547237 83.413361
344 3 1  0.000000 65.435448 45.407520 82.496758
345 3 1  0.000000 64.215996 44.284649 82.330147
346 3 1  0.000000 62.927299 43.575077 82.164383
347 3 1  0.000000 61.825775 43.257603 83.102432
348 3 1  0.000000 61.874065 41.795925 83.170975
349 3 1  0.000000 62.086697 40.384830 84.038445
350 3 1  0.000000 62.682285 39.763695 85.359955
351 3 1  0.000000 63.846115 40.594910 85.972656
352 3 1  0.000000 65.298965 40.960716 85.871162
353 3 1  0.000000 66.120522 40.243771 84.914017
354 3 1  0.000000 67.201317 41.551884 85.395058
355 3 1  0.000000 67.685143 43.149036 85.215096
356 3 1  0.000000 69.016953 43.048260 84.622948
357 3 1  0.000000 68.954315 42.702129 83.117981
358 3 1  0.000000 69.094109 44.216881 82.562912
359 3 1  0.000000 70.567871 43.668472 82.349739
360 3 1  0.000000 72.046570 43.387245 82.064453
361 3 1  0.000000 72.560806 44.872002 81.958717
362 3 1  0.000000 72.857658 46.227139 81.891319
363 3 1  0.000000 73.353577 47.303638 82.891426
364 3 1  0.000000 72.511116 48.083157 81.947327
365 3 1  0.000000 72.649353 49.535545 82.139091
366 3 1  0.000000 71.659691 50.633381 82.210831
367 3 1  0.000000 71.651482 51.495819 83.241325
368 3 1  0.000000 72.289764 52.851471 84.160484
369 3 1  0.000000 72.641632 54.222027 84.472794
370 3 1  0.000000 72.633606 55.669144 83.955460
371 3 1  0.000000 73.071854 55.682411 82.455704
372 3 1  0.000000 73.762932 56.378841 81.225594
373 3 1  0.000000 73.262741 57.911045 80.829819
374 3 1  0.000000 73.408684 58.469933 79.547462
375 3 1  0.000000 74.360542 59.550598 79.430901
376 3 1  0.000000 74.417412 61.112724 78.799522
377 3 1  0.000000 74.871437 61.709534 80.142296
378 3 1  0.000000 73.715828 62.701233 80.540352
379 3 1  0.000000 73.857788 62.371449 82.072502
380 3 1  0.000000 72.932381 61.787872 83.025391
381 3 1  0.000000 72.217018 62.738258 84.267876
382 3 1  0.000000 72.969910 63.337742 85.414810
383 3 1  0.000000 73.087212 63.970089 86.716660
384 3 1  0.000000 74.261215 62.777924 86.779984
385 3 1  0.000000 75.066299 61.888607 87.648956
386 3 1  0.000000 75.805214 62.554558 88.848289
387 3 1  0.000000 76.419121 64.109093 88.982101
388 3 1  0.000000 77.958069 63.807377 89.374176
389 3 1  0.000000 79.426147 64.109985 89.006599
390 3 1  0.000000 79.642761 63.512970 90.389992
391 3 1  0.000000 80.711899 64.397911 91.382561
392 3 1  0.000000 81.085190 65.678734 90.786224
393 3 1  0.000000 82.334785 66.116058 91.643692
394 3 1  0.000000 81.406517 67.293663 91.407417
395 3 1  0.000000 80.236717 68.089874 91.273735
396 3 1  0.000000 79.996803 68.985466 92.550880
397 3 1  0.000000 78.718651 68.787613 93.433487
398 3 1  0.000000 77.613007 68.989441 92.344994
399 3 1  0.000000 76.961159 69.845665 93.584511
400 3 1  0.000000 75.420135 70.017021 93.110558
401 4 1  0.000000 65.103508 70.213051 70.966904
402 4 1  0.000000 64.217171 69.071579 70.652824
403 4 1  0.000000 64.482674 67.560135 71.046181
404 4 1  0.000000 65.153999 66.324310 71.756935
405 4 1  0.000000 65.943398 66.084541 73.082123
406 4 1  0.000000 65.897942 65.843071 74.794960
407 4 1  0.000000 65.408005 64.619308 74.595573
408 4 1  0.000000 66.760178 63.624695 74.614090
409 4 1  0.000000 66.239243 62.571613 75.788795
410 4 1  0.000000 66.863083 62.211906 77.153313
411 4 1  0.000000 66.303345 62.011654 78.513054
412 4 1  0.000000 65.172989 62.110535 79.505241
413 4 1  0.000000 65.918785 62.062958 80.599945
414 4 1  0.000000 66.155434 62.523434 82.123177
415 4 1  0.000000 66.323036 64.104095 82.474709
416 4 1  0.000000 67.442841 65.295425 82.786797
417 4 1  0.000000 68.258163 66.397949 82.398430
418 4 1  0.000000 69.523544 65.757355 81.618492
419 4 1  0.000000 69.981804 66.463745 80.398438
420 4 1  0.000000 70.383743 66.294380 79.011787
421 4 1  0.000000 70.383957 67.693939 78.560570
422 4 1  0.000000 70.358894 65.994270 78.388306
423 4 1  0.000000 70.979477 65.294586 77.143600
424 4 1  0.000000 71.506485 65.425423 75.717537
425 4 1  0.000000 72.540161 66.016312 74.704239
426 4 1  0.000000 71.529930 66.276047 73.350105
427 4 1  0.000000 71.648949 67.836731 73.228645
428 4 1  0.000000 72.077805 68.835602 74.037956
429 4 1  0.000000 72.748596 70.139252 73.555466
430 4 1  0.000000 73.853233 70.997696 73.998535
431 4 1  0.000000 72.535103 71.431984 74.946991
432 4 1  0.000000 72.866280 72.653427 75.769516
433 4 1  0.000000 74.486015 73.016464 75.306252
434 4 1  0.000000 76.183968 73.113602 75.234955
435 4 1  0.000000 76.234703 74.846008 75.517929
436 4 1  0.000000 77.048325 74.198502 76.643494
437 4 1  0.000000 78.611572 74.300339 76.499649
438 4 1  0.000000 79.472008 73.082161 77.181976
439 4 1  0.000000 81.026146 73.140984 77.248360
440 4 1  0.000000 82.249680 72.426880 76.812393
441 4 1  0.000000 81.635254 73.036789 75.404884
442 4 1  0.000000 81.624146 71.862701 74.370712
443 4 1  0.000000 80.262947 70.990692 73.683861
444 4 1  0.000000 81.592636 70.752251 72.728836
445 4 1  0.000000 81.778809 69.401375 73.377480
446 4 1  0.000000 82.397881 68.178055 72.837105
447 4 1  0.000000 81.366043 67.134109 72.641273
448 4 1  0.000000 80.234749 66.022789 73.008125
449 4 1  0.000000 80.507408 66.009666 74.521530
450 4 1  0.000000 78.958900 65.964844 75.216324
451 4 1  0.000000 78.222008 67.082108 74.845688
452 4 1  0.000000 77.528069 68.161125 75.748001
453 4 1  0.000000 76.025764 67.784966 75.782005
454 4 1  0.000000 75.587738 68.452370 77.207230
455 4 1  0.000000 74.940361 68.688606 78.397644
456 4 1  0.000000 75.680733 69.978729 79.201904
457 4 1  0.000000 74.135300 69.726936 79.877815
458 4 1  0.000000 73.715233 70.494537 81.199768
459 4 1  0.000000 73.475555 72.054962 81.545647
460 4 1  0.000000 72.460358 70.768578 81.507568
461 4 1  0.000000 71.492653 70.090591 82.641006
462 4 1  0.000000 69.811493 70.108841 83.240120
463 4 1  0.000000 69.333214 71.126289 84.035629
464 4 1  0.000000 68.941895 71.571022 85.451027
465 4 1  0.000000 67.947533 72.633484 85.355530
466 4 1  0.000000 68.851593 73.896965 85.986053
467 4 1  0.000000 67.981613 75.180916 85.264908
468 4 1  0.000000 67.977654 76.500610 84.441917
469 4 1  0.000000 68.756454 76.841042 86.063629
470 4 1  0.000000 69.488396 77.489441 84.770950
471 4 1  0.000000 69.940170 78.370232 86.071991
472 4 1  0.000000 71.060265 77.379799 86.875908
473 4 1  0.000000 72.587601 77.554337 86.766884
474 4 1  0.000000 73.026947 77.703102 88.321396
475 4 1  0.000000 72.307442 78.328857 89.443993
476 4 1  0.000000 71.283012 78.244949 90.583130
477 4 1  0.000000 70.836319 78.425247 91.946068
478 4 1  0.000000 70.327011 76.960472 91.942978
479 4 1  0.000000 69.573204 75.560120 91.502190
480 4 1  0.000000 67.956825 75.464531 91.992630
481 4 1  0.000000 67.183693 75.428131 93.411377
482 4 1  0.000000 66.464638 74.017975 93.140205
483 4 1  0.000000 65.897667 74.206604 91.779327
484 4 1  0.000000 64.614624 73.721107 91.619354
485 4 1  0.000000 63.970306 72.307472 91.280075
486 4 1  0.000000 64.517036 70.937996 91.487259
487 4 1  0.000000 64.501152 69.603043 92.085320
488 4 1  0.000000 65.787437 69.832733 91.400528
489 4 1  0.000000 67.320152 70.206070 91.089539
490 4 1  0.000000 68.388130 69.578430 91.995094
491 4 1  0.000000 69.827278 70.088188 91.688576
492 4 1  0.000000 69.185204 70.480484 93.009956
493 4 1  0.000000 70.656433 70.689835 93.493546
494 4 1  0.000000 71.426315 70.762718 94.849632
495 4 1  0.000000 72.047539 72.296753 95.244797
496 4 1  0.000000 72.317726 71.186714 96.152695
497 4 1  0.000000 72.918472 71.987358 97.368950
498 4 1  0.000000 74.240395 72.365425 96.468849
499 4 1  0.000000 75.164505 72.323677 97.547768
500 4 1  0.000000 76.481270 73.227966 97.476250
501 5 1  0.000000 114.649094 97.808479 85.387276
502 5 1  0.000000 114.888000 96.418808 85.000511
503 5 1  0.000000 113.409378 96.239830 85.545921
504 5 1  0.000000 113.339539 94.682579 85.260262
505 5 1  0.000000 113.501442 93.162651 85.446274
506 5 1  0.000000 114.428482 92.759705 86.852173
507 5 1  0.000000 114.372780 91.532715 86.091774
508 5 1  0.000000 113.422508 90.629753 85.402573
509 5 1  0.000000 113.938400 89.056625 85.765915
510 5 1  0.000000 113.020317 87.817879 86.356606
511 5 1  0.000000 111.683525 88.308823 87.106895
512 5 1  0.000000 111.620605 88.890259 88.384850
513 5 1  0.000000 110.813217 90.009514 87.986160
514 5 1  0.000000 111.034264 91.457260 88.466255
515 5 1  0.000000 110.429390 92.470558 87.643410
516 5 1  0.000000 109.834465 93.179581 88.727440
517 5 1  0.000000 109.835861 93.372101 90.137306
518 5 1  0.000000 108.697952 93.236290 91.202461
519 5 1  0.000000 107.004143 93.223915 90.893097
520 5 1  0.000000 106.129356 93.796013 89.790680
521 5 1  0.000000 105.612091 94.241653 88.364693
522 5 1  0.000000 104.675674 94.104630 87.201881
523 5 1  0.000000 103.549065 94.094917 86.127922
524 5 1  0.000000 105.007767 94.516479 85.978355
525 5 1  0.000000 103.520599 94.175278 84.984818
526 5 1  0.000000 103.951073 93.907845 83.490555
527 5 1  0.000000 103.333992 94.536545 81.975136
528 5 1  0.000000 102.515274 95.041077 80.766853
529 5 1  0.000000 101.309677 94.583786 79.743233
530 5 1  0.000000 99.931206 95.097961 79.623619
531 5 1  0.000000 98.778419 94.911377 78.629555
532 5 1  0.000000 98.433945 94.096390 79.983383
533 5 1  0.000000 97.687088 92.944160 80.447556
534 5 1  0.000000 96.548431 92.816391 79.466988
535 5 1  0.000000 95.074089 93.257843 79.283676
536 5 1  0.000000 93.606651 93.808632 79.726006
537 5 1  0.000000 93.201370 94.170341 81.181702
538 5 1  0.000000 91.819077 93.364716 81.533424
539 5 1  0.000000 91.747841 92.549904 82.839088
540 5 1  0.000000 90.287910 93.004005 82.720711
541 5 1  0.000000 89.079887 93.948418 82.277794
542 5 1  0.000000 89.039154 94.099190 83.847557
543 5 1  0.000000 87.871536 94.996658 84.572395
544 5 1  0.000000 86.322891 94.334969 84.384644
545 5 1  0.000000 85.667931 92.682899 84.360558
546 5 1  0.000000 85.300507 91.953911 82.952240
547 5 1  0.000000 84.312996 91.123810 81.936234
548 5 1  0.000000 84.259781 90.673080 80.480843
549 5 1  0.000000 82.781303 91.194252 80.691277
550 5 1  0.000000 81.996613 91.251686 79.565483
551 5 1  0.000000 81.763184 90.623238 78.069763
552 5 1  0.000000 80.635376 91.193367 78.789925
553 5 1  0.000000 79.543289 91.889595 78.202103
554 5 1  0.000000 78.166908 92.556717 77.808403
555 5 1  0.000000 77.238876 91.457619 77.313622
556 5 1  0.000000 77.545921 90.268776 76.060020
557 5 1  0.000000 76.828865 89.500183 75.046532
558 5 1  0.000000 76.189270 89.473778 76.451454
559 5 1  0.000000 75.858833 87.956924 76.214851
560 5 1  0.000000 75.246758 87.365120 75.067589
561 5 1  0.000000 74.977699 85.957108 75.313789
562 5 1  0.000000 73.803825 85.683800 76.469749
563 5 1  0.000000 73.228706 84.525719 75.611465
564 5 1  0.000000 73.052101 83.052834 76.376778
565 5 1  0.000000 74.235245 82.016197 75.831833
566 5 1  0.000000 75.491470 81.307304 76.576622
567 5 1  0.000000 76.543091 80.147247 77.036102
568 5 1  0.000000 77.260132 81.533394 76.207619
569 5 1  0.000000 78.171555 82.552109 76.825645
570 5 1  0.000000 78.496658 82.606537 78.337975
571 5 1  0.000000 79.150864 83.135361 79.734581
572 5 1  0.000000 79.667656 81.709152 79.894157
573 5 1  0.000000 78.875206 81.180573 81.022392
574 5 1  0.000000 79.224884 79.820824 81.635567
575 5 1  0.000000 77.930954 79.247978 80.831001
576 5 1  0.000000 77.083969 77.800140 80.937042
577 5 1  0.000000 75.564178 77.217201 80.936729
578 5 1  0.000000 74.688522 76.976250 82.199593
579 5 1  0.000000 74.464684 78.485725 82.106270
580 5 1  0.000000 73.110268 78.952225 81.713699
581 5 1  0.000000 73.006454 80.337891 82.262962
582 5 1  0.000000 73.488953 81.586174 81.448441
583 5 1  0.000000 72.568481 81.929932 80.155792
584 5 1  0.000000 71.054123 82.483170 79.782082
585 5 1  0.000000 71.207687 83.635864 80.783714
586 5 1  0.000000 69.740860 84.062576 80.859962
587 5 1  0.000000 68.443405 84.594376 80.951553
588 5 1  0.000000 68.578781 85.831024 79.858185
589 5 1  0.000000 67.980232 86.752052 79.026268
590 5 1  0.000000 66.993645 86.518944 77.969437
591 5 1  0.000000 65.498451 86.255104 77.413696
592 5 1  0.000000 65.382797 85.121819 76.387955
593 5 1  0.000000 65.267014 83.840469 75.161034
594 5 1  0.000000 63.745056 83.496834 75.248314
595 5 1  0.000000 63.686096 81.891472 75.202217
596 5 1  0.000000 63.119015 81.436195 73.866585
597 5 1  0.000000 62.694187 80.352150 74.840172
598 5 1  0.000000 61.301758 79.758759 75.203102
599 5 1  0.000000 60.031269 79.264023 74.361603
600 5 1  0.000000 60.060032 77.918076 73.660927
601 6 1  0.000000 86.139236 93.709007 76.682961
602 6 1  0.000000 84.727371 93.222031 76.975899
603 6 1  0.000000 85.508179 93.850090 78.126785
604 6 1  0.000000 85.772270 94.278625 79.623489
605 6 1  0.000000 84.867607 95.292603 80.266487
606 6 1  0.000000 84.212723 96.751198 80.460144
607 6 1  0.000000 83.710022 98.106453 80.733490
608 6 1  0.000000 82.974297 97.025955 79.975861
609 6 1  0.000000 81.478455 97.118370 80.266594
610 6 1  0.000000 79.930984 97.367233 79.837067
611 6 1  0.000000 78.768791 97.782524 78.831795
612 6 1  0.000000 77.602829 96.759171 78.756973
613 6 1  0.000000 78.451630 96.443909 77.628090
614 6 1  0.000000 77.746689 97.435745 76.627373
615 6 1  0.000000 76.423569 97.057350 75.855614
616 6 1  0.000000 75.168022 96.204903 75.750519
617 6 1  0.000000 74.047249 95.062866 75.821159