Created with TaichiMD

1000 atoms
991 bonds
  0 angles
  0 dihedrals
  0 impropers

1 atom types
1 bond types
0 angle types
0 dihedral types
0 improper types

-80.00000  80.00000 xlo xhi
-80.00000  80.00000 ylo yhi
-80.00000  80.00000 zlo zhi

Masses

1 10.0000

Atoms

  1 0 1  0.000000 98.215904 -1.357787 71.632469
  2 0 1  0.000000 96.791695 -0.353598 71.461151
  3 0 1  0.000000 96.839027  0.803085 71.179047
  4 0 1  0.000000 96.976311  0.123542 72.999695
  5 0 1  0.000000 96.902267  0.074733 74.070305
  6 0 1  0.000000 95.730087  0.774949 75.657837
  7 0 1  0.000000 95.810669 -0.110665 76.877556
  8 0 1  0.000000 94.760010 -0.720624 76.253716
  9 0 1  0.000000 93.165260 -0.066075 76.239090
 10 0 1  0.000000 92.603020 -1.720599 76.503433
 11 0 1  0.000000 92.072311 -1.022079 75.350151
 12 0 1  0.000000 90.802025 -1.468921 76.357704
 13 0 1  0.000000 89.018265 -0.990040 76.621857
 14 0 1  0.000000 89.863136 -2.092698 75.142181
 15 0 1  0.000000 88.390907 -2.158817 74.451599
 16 0 1  0.000000 88.415779  0.058523 73.840378
 17 0 1  0.000000 89.189140 -0.780116 72.649338
 18 0 1  0.000000 89.879776  0.595833 72.498306
 19 0 1  0.000000 89.650459  1.825504 70.691147
 20 0 1  0.000000 87.847420  2.877866 70.501793
 21 0 1  0.000000 88.374153  4.812037 71.211571
 22 0 1  0.000000 88.147491  5.314869 69.726944
 23 0 1  0.000000 87.728302  7.134238 69.918755
 24 0 1  0.000000 88.631538  8.610718 69.906609
 25 0 1  0.000000 90.007858  8.494252 69.156548
 26 0 1  0.000000 88.810661  9.553534 68.647362
 27 0 1  0.000000 90.102882  9.715567 68.464767
 28 0 1  0.000000 91.998596 10.250685 67.632919
 29 0 1  0.000000 92.794868 11.551295 66.805183
 30 0 1  0.000000 93.335136 11.884485 66.447083
 31 0 1  0.000000 93.415634 10.772726 65.899239
 32 0 1  0.000000 92.644058 11.708846 64.828934
 33 0 1  0.000000 92.136230 12.602733 63.409847
 34 0 1  0.000000 91.007820 13.256950 63.387310
 35 0 1  0.000000 89.620316 13.654269 63.430759
 36 0 1  0.000000 89.074036 13.892874 64.087830
 37 0 1  0.000000 87.634407 12.653572 64.012421
 38 0 1  0.000000 86.354195 11.898264 64.214172
 39 0 1  0.000000 87.029678 10.854772 62.789185
 40 0 1  0.000000 86.444099  9.824961 63.335606
 41 0 1  0.000000 86.925568  9.542172 61.636536
 42 0 1  0.000000 86.832321  9.675648 60.454914
 43 0 1  0.000000 86.242348  8.477129 58.736450
 44 0 1  0.000000 87.252502  7.506745 59.185123
 45 0 1  0.000000 88.273689  6.306727 57.666821
 46 0 1  0.000000 88.292542  5.140281 57.176701
 47 0 1  0.000000 88.402596  4.138062 56.881805
 48 0 1  0.000000 87.702126  3.231955 55.849857
 49 0 1  0.000000 87.675110  2.769011 54.285400
 50 0 1  0.000000 85.637001  2.864081 53.453217
 51 0 1  0.000000 86.475716  3.961672 53.142666
 52 0 1  0.000000 84.884537  4.834969 53.895401
 53 0 1  0.000000 83.686928  6.712852 53.149597
 54 0 1  0.000000 82.320038  6.724932 53.160908
 55 0 1  0.000000 82.640167  9.239128 53.102810
 56 0 1  0.000000 82.605652  8.680203 51.610191
 57 0 1  0.000000 81.795631 10.027850 50.825718
 58 0 1  0.000000 80.447166 11.620852 50.569290
 59 0 1  0.000000 81.290657 13.143313 50.201504
 60 0 1  0.000000 81.548187 14.224562 51.818211
 61 0 1  0.000000 81.517868 15.843863 51.605068
 62 0 1  0.000000 80.397606 15.468946 49.929020
 63 0 1  0.000000 79.234428 15.923431 50.644974
 64 0 1  0.000000 79.052750 16.625904 48.802029
 65 0 1  0.000000 79.819199 17.624365 48.722137
 66 0 1  0.000000 80.892006 18.584518 49.551151
 67 0 1  0.000000 81.175568 19.407507 50.729149
 68 0 1  0.000000 81.685158 21.195587 51.592770
 69 0 1  0.000000 82.716217 21.072062 52.845844
 70 0 1  0.000000 83.677513 20.813135 51.380062
 71 0 1  0.000000 84.653297 21.516729 52.412113
 72 0 1  0.000000 87.148216 21.679802 52.226486
 73 0 1  0.000000 88.002602 22.742947 51.714119
 74 0 1  0.000000 87.666420 24.242601 51.463570
 75 0 1  0.000000 86.769127 26.090944 50.446484
 76 0 1  0.000000 85.855263 27.072733 49.101311
 77 0 1  0.000000 85.963303 26.847803 46.599964
 78 0 1  0.000000 85.002052 26.450232 45.839703
 79 0 1  0.000000 85.543137 28.649639 45.727898
 80 0 1  0.000000 85.784546 29.472786 44.023270
 81 0 1  0.000000 85.874046 28.823046 42.214962
 82 0 1  0.000000 84.512611 27.922361 41.822521
 83 0 1  0.000000 84.487709 29.188421 41.535652
 84 0 1  0.000000 83.501022 30.166061 41.666435
 85 0 1  0.000000 83.001846 29.918526 39.740604
 86 0 1  0.000000 83.332733 31.420355 38.333294
 87 0 1  0.000000 83.820747 30.542967 37.394093
 88 0 1  0.000000 82.460365 31.053017 36.804459
 89 0 1  0.000000 81.017097 32.125587 37.182877
 90 0 1  0.000000 79.543419 30.712902 37.227112
 91 0 1  0.000000 80.568542 31.925472 36.168476
 92 0 1  0.000000 79.212280 31.212347 34.274143
 93 0 1  0.000000 77.609932 30.762926 34.639709
 94 0 1  0.000000 76.242294 29.349371 34.730938
 95 0 1  0.000000 76.892464 29.532528 35.946068
 96 0 1  0.000000 77.255760 28.294325 34.696445
 97 0 1  0.000000 75.860077 27.218622 34.926735
 98 0 1  0.000000 78.005943 26.038342 35.905609
 99 0 1  0.000000 77.664886 24.677526 36.370071
100 0 1  0.000000 78.650452 25.968073 35.740040
101 1 1  0.000000 86.603905 17.611086 83.781136
102 1 1  0.000000 85.599472 16.949430 83.625473
103 1 1  0.000000 85.073174 17.774454 84.460800
104 1 1  0.000000 84.502090 18.179770 85.808800
105 1 1  0.000000 83.408539 18.459391 86.960434
106 1 1  0.000000 82.889900 18.165159 87.938583
107 1 1  0.000000 83.780373 19.193542 89.586143
108 1 1  0.000000 82.504265 18.599686 90.774872
109 1 1  0.000000 84.488281 18.219263 90.580315
110 1 1  0.000000 84.667877 18.682562 92.006165
111 1 1  0.000000 85.271370 18.361288 93.597237
112 1 1  0.000000 85.254700 17.129011 95.285728
113 1 1  0.000000 85.018738 18.539930 95.638542
114 1 1  0.000000 85.483360 17.094851 96.900688
115 1 1  0.000000 83.857719 16.548918 97.559464
116 1 1  0.000000 82.175232 16.366003 98.012833
117 1 1  0.000000 81.255913 16.027498 99.236725
118 1 1  0.000000 79.659851 16.114391 98.907631
119 1 1  0.000000 78.593422 16.071728 99.430534
120 1 1  0.000000 77.561798 17.008207 99.374481
121 1 1  0.000000 77.406631 18.680412 98.980019
122 1 1  0.000000 76.064125 19.327181 100.094658
123 1 1  0.000000 74.793190 19.043926 100.462769
124 1 1  0.000000 73.504120 18.716757 102.545921
125 1 1  0.000000 72.043297 17.516310 103.389717
126 1 1  0.000000 70.689926 17.157312 102.331734
127 1 1  0.000000 70.809273 15.262049 101.469063
128 1 1  0.000000 69.480980 13.834492 101.708832
129 1 1  0.000000 69.086327 12.079526 100.707809
130 1 1  0.000000 67.999031 11.012959 100.912903
131 1 1  0.000000 66.844261 11.598494 100.575485
132 1 1  0.000000 66.751877 12.100196 98.651787
133 1 1  0.000000 66.013367 13.620030 100.357925
134 1 1  0.000000 64.907486 13.786488 101.093086
135 1 1  0.000000 64.536911 14.609042 102.722244
136 1 1  0.000000 64.760529 15.731816 101.535637
137 1 1  0.000000 64.930351 16.667831 103.340469
138 1 1  0.000000 64.685432 17.077665 101.757942
139 1 1  0.000000 62.849232 17.155989 102.109520
140 1 1  0.000000 61.317665 17.697872 103.403214
141 1 1  0.000000 60.212475 18.235407 102.634277
142 1 1  0.000000 59.815056 16.870195 102.500183
143 1 1  0.000000 59.351536 16.438734 103.827911
144 1 1  0.000000 59.080254 14.980358 103.690758
145 1 1  0.000000 57.437672 14.626077 103.723915
146 1 1  0.000000 57.398571 14.607160 105.190735
147 1 1  0.000000 56.014637 15.161507 104.369499
148 1 1  0.000000 56.238861 16.570852 104.996544
149 1 1  0.000000 55.889797 18.055740 104.167458
150 1 1  0.000000 55.701660 17.744549 106.203896
151 1 1  0.000000 53.659256 18.581060 106.642403
152 1 1  0.000000 52.709122 17.918180 106.951385
153 1 1  0.000000 51.471889 18.935230 106.608864
154 1 1  0.000000 51.271725 20.902983 107.161415
155 1 1  0.000000 49.194263 20.921412 107.306641
156 1 1  0.000000 48.621002 23.241116 107.370140
157 1 1  0.000000 48.136070 24.381857 107.342438
158 1 1  0.000000 47.361507 23.313396 106.318771
159 1 1  0.000000 46.242962 24.316954 105.707108
160 1 1  0.000000 46.999119 25.652754 106.236679
161 1 1  0.000000 47.087887 27.271452 106.356026
162 1 1  0.000000 46.372448 28.496441 106.404266
163 1 1  0.000000 45.566990 27.343767 107.504494
164 1 1  0.000000 44.269066 27.500111 108.434143
165 1 1  0.000000 43.244114 27.434637 108.850327
166 1 1  0.000000 41.755226 25.968254 109.463974
167 1 1  0.000000 41.688675 26.705290 110.567993
168 1 1  0.000000 40.397091 25.526003 110.395821
169 1 1  0.000000 39.938545 24.120892 110.745735
170 1 1  0.000000 41.056660 23.129829 111.708336
171 1 1  0.000000 42.402477 23.315933 113.001678
172 1 1  0.000000 43.678822 22.240646 112.534500
173 1 1  0.000000 44.585335 20.914755 113.363731
174 1 1  0.000000 45.109734 19.788704 111.963608
175 1 1  0.000000 43.808872 18.980698 111.632751
176 1 1  0.000000 43.540642 17.240059 112.083824
177 1 1  0.000000 42.553371 18.216587 113.541092
178 1 1  0.000000 41.021538 17.943398 113.597618
179 1 1  0.000000 39.914520 16.649500 112.726936
180 1 1  0.000000 39.467609 17.539042 111.610886
181 1 1  0.000000 37.459862 16.466642 112.066147
182 1 1  0.000000 38.175034 16.173616 110.804733
183 1 1  0.000000 37.417419 17.211498 110.504532
184 1 1  0.000000 36.572979 18.230219 108.704468
185 1 1  0.000000 37.487782 19.661972 108.801025
186 1 1  0.000000 35.643593 19.467134 108.742340
187 1 1  0.000000 36.282089 20.743624 109.130798
188 1 1  0.000000 34.802944 21.743979 109.217560
189 1 1  0.000000 34.192940 20.839815 110.632935
190 1 1  0.000000 33.648701 22.088854 110.602196
191 1 1  0.000000 32.404293 22.851843 110.005295
192 1 1  0.000000 30.977825 23.796877 108.708855
193 1 1  0.000000 30.323286 25.176685 108.989235
194 1 1  0.000000 28.983917 25.721615 110.382462
195 1 1  0.000000 27.162716 25.856569 109.727364
196 1 1  0.000000 25.924719 26.438595 108.451035
197 1 1  0.000000 25.379751 27.902611 109.344360
198 1 1  0.000000 24.965086 27.314983 108.232773
199 1 1  0.000000 24.981472 26.973976 106.731018
200 1 1  0.000000 23.181520 26.600883 105.997780
201 2 1  0.000000 52.593765 48.299160 76.535011
202 2 1  0.000000 53.613331 47.833714 76.788422
203 2 1  0.000000 55.307468 47.972004 77.880646
204 2 1  0.000000 55.533585 46.408791 78.180458
205 2 1  0.000000 54.515614 47.533962 79.682915
206 2 1  0.000000 53.195309 48.216160 80.394264
207 2 1  0.000000 53.295559 50.373112 80.325966
208 2 1  0.000000 53.608074 52.027386 79.895294
209 2 1  0.000000 52.424213 53.800678 79.236275
210 2 1  0.000000 52.746037 52.556763 77.583717
211 2 1  0.000000 52.836704 53.269211 76.274040
212 2 1  0.000000 53.101192 53.673382 74.803879
213 2 1  0.000000 53.465160 53.132732 75.761986
214 2 1  0.000000 54.764759 54.732239 75.607155
215 2 1  0.000000 56.782608 54.451107 75.704842
216 2 1  0.000000 57.709198 53.001736 75.292534
217 2 1  0.000000 58.336765 51.882549 75.008514
218 2 1  0.000000 59.984833 52.914364 74.790146
219 2 1  0.000000 62.000797 52.584743 73.882812
220 2 1  0.000000 63.472061 52.151829 74.183929
221 2 1  0.000000 63.922913 53.340607 73.726074
222 2 1  0.000000 64.283165 53.733120 72.350258
223 2 1  0.000000 65.144913 53.914494 70.806282
224 2 1  0.000000 66.221970 52.834675 70.931496
225 2 1  0.000000 67.474274 54.006893 71.050659
226 2 1  0.000000 68.146194 53.756851 69.633896
227 2 1  0.000000 68.369400 51.622993 68.700661
228 2 1  0.000000 67.453941 51.022766 68.166451
229 2 1  0.000000 66.696709 49.248764 68.466766
230 2 1  0.000000 68.062141 50.029671 69.378181
231 2 1  0.000000 69.259598 48.223919 69.271957
232 2 1  0.000000 68.607475 46.790585 68.342812
233 2 1  0.000000 69.721214 45.815819 67.552254
234 2 1  0.000000 70.007912 45.297466 65.744339
235 2 1  0.000000 69.461349 43.462341 65.509224
236 2 1  0.000000 69.457184 42.639191 67.385643
237 2 1  0.000000 69.394997 41.513416 67.636810
238 2 1  0.000000 69.855713 39.864174 67.612213
239 2 1  0.000000 68.068214 39.866779 66.684578
240 2 1  0.000000 68.298615 38.410690 66.906044
241 2 1  0.000000 66.750710 38.008873 66.298569
242 2 1  0.000000 64.925644 37.445206 66.328293
243 2 1  0.000000 64.538040 36.147778 67.118629
244 2 1  0.000000 64.228172 37.689388 67.731300
245 2 1  0.000000 62.716625 38.821262 68.133102
246 2 1  0.000000 61.729477 37.888401 67.903488
247 2 1  0.000000 63.279953 38.371822 69.341972
248 2 1  0.000000 61.718128 38.164879 69.712341
249 2 1  0.000000 60.337276 38.795181 70.143570
250 2 1  0.000000 61.390083 38.714413 71.232597
251 2 1  0.000000 61.267296 39.717602 73.070236
252 2 1  0.000000 61.822071 41.065853 73.142578
253 2 1  0.000000 62.335396 42.941284 72.671013
254 2 1  0.000000 62.821491 44.283680 73.261772
255 2 1  0.000000 64.258820 45.036869 73.641167
256 2 1  0.000000 65.618561 44.795006 73.140839
257 2 1  0.000000 67.436432 45.400333 73.285576
258 2 1  0.000000 67.700218 44.406261 74.198448
259 2 1  0.000000 66.770775 44.355869 75.345306
260 2 1  0.000000 67.293411 45.241074 76.940483
261 2 1  0.000000 68.570450 44.011387 76.837044
262 2 1  0.000000 69.022285 45.503128 77.397408
263 2 1  0.000000 68.440384 44.935131 79.328430
264 2 1  0.000000 68.311470 45.884724 80.546692
265 2 1  0.000000 67.124313 46.177643 80.777336
266 2 1  0.000000 67.751175 44.137325 80.549553
267 2 1  0.000000 67.071732 42.676666 81.709663
268 2 1  0.000000 67.769463 41.767643 83.036911
269 2 1  0.000000 67.980835 43.194633 84.575989
270 2 1  0.000000 68.833504 43.315083 86.721123
271 2 1  0.000000 69.069664 42.905514 88.151131
272 2 1  0.000000 67.646210 43.386646 89.420547
273 2 1  0.000000 67.259460 42.060532 90.697922
274 2 1  0.000000 66.347878 40.938450 90.022446
275 2 1  0.000000 67.230301 41.213673 90.616905
276 2 1  0.000000 66.443100 41.229664 92.201401
277 2 1  0.000000 67.035690 41.488922 94.051521
278 2 1  0.000000 67.584007 40.901077 95.513268
279 2 1  0.000000 67.903275 39.180004 94.815796
280 2 1  0.000000 68.271072 40.369457 95.911209
281 2 1  0.000000 69.490356 41.273647 96.937988
282 2 1  0.000000 70.718880 42.342648 97.859016
283 2 1  0.000000 69.504326 40.548008 98.024536
284 2 1  0.000000 68.400642 39.845699 99.044472
285 2 1  0.000000 67.216881 38.044189 98.425819
286 2 1  0.000000 66.858276 35.902901 99.897163
287 2 1  0.000000 68.448181 35.579117 100.025604
288 2 1  0.000000 70.269760 35.732796 99.179237
289 2 1  0.000000 70.385483 36.904919 98.582779
290 2 1  0.000000 72.469765 37.786907 98.635361
291 2 1  0.000000 74.215683 37.846405 98.207054
292 2 1  0.000000 76.229996 36.941647 97.346863
293 2 1  0.000000 77.023994 37.345280 97.963394
294 2 1  0.000000 78.198059 36.493076 97.265930
295 2 1  0.000000 79.353134 37.080681 97.698555
296 2 1  0.000000 80.190903 36.282249 96.962379
297 2 1  0.000000 80.083862 35.139763 97.859833
298 2 1  0.000000 81.802635 33.858070 97.353516
299 2 1  0.000000 82.270905 34.703587 98.883606
300 2 1  0.000000 83.677444 35.234959 99.295471
301 3 1  0.000000 96.197983 68.643494 104.019272
302 3 1  0.000000 95.593895 67.296684 105.040817
303 3 1  0.000000 94.603996 68.958382 102.807884
304 3 1  0.000000 93.669044 68.380127 104.125366
305 3 1  0.000000 93.887321 66.354233 103.423637
306 3 1  0.000000 92.365135 66.777847 102.768875
307 3 1  0.000000 91.761139 65.994942 104.230713
308 3 1  0.000000 90.563591 65.977394 103.491928
309 3 1  0.000000 91.023804 65.290741 104.022820
310 3 1  0.000000 89.463348 64.735733 103.984184
311 3 1  0.000000 88.960800 64.246819 102.697578
312 3 1  0.000000 88.063774 62.933327 102.086029
313 3 1  0.000000 89.135849 64.174507 100.804268
314 3 1  0.000000 88.971451 63.453209 99.350510
315 3 1  0.000000 89.031952 64.022255 97.441299
316 3 1  0.000000 88.267624 62.872765 96.962807
317 3 1  0.000000 87.587646 61.334560 96.653984
318 3 1  0.000000 87.176689 61.717743 95.287811
319 3 1  0.000000 86.528168 63.494671 95.133514
320 3 1  0.000000 84.743820 64.010246 93.936493
321 3 1  0.000000 83.663864 65.283630 92.596474
322 3 1  0.000000 84.311653 65.920250 91.883011
323 3 1  0.000000 82.784531 65.505432 92.004425
324 3 1  0.000000 81.468697 66.584419 90.685326
325 3 1  0.000000 80.114258 65.896042 88.662285
326 3 1  0.000000 80.570198 65.064507 87.200722
327 3 1  0.000000 79.174126 64.370399 87.519691
328 3 1  0.000000 78.859879 65.223068 86.149284
329 3 1  0.000000 78.345467 66.815125 86.403000
330 3 1  0.000000 76.979279 67.356483 85.734909
331 3 1  0.000000 76.252274 68.587326 85.051170
332 3 1  0.000000 75.591911 67.419853 84.695473
333 3 1  0.000000 75.472977 67.850510 83.287567
334 3 1  0.000000 74.617119 66.574707 82.488983
335 3 1  0.000000 73.680618 65.928505 83.469864
336 3 1  0.000000 72.980499 64.725266 84.013100
337 3 1  0.000000 71.206062 64.771278 84.030518
338 3 1  0.000000 71.031029 64.881813 85.689064
339 3 1  0.000000 69.941994 65.282211 83.783417
340 3 1  0.000000 68.946564 66.338928 84.368973
341 3 1  0.000000 67.782730 67.816101 84.566246
342 3 1  0.000000 67.721565 68.624664 83.020294
343 3 1  0.000000 68.183678 69.419930 83.021828
344 3 1  0.000000 67.239334 69.614792 81.619354
345 3 1  0.000000 66.401428 69.643456 80.513710
346 3 1  0.000000 65.422462 69.920525 81.192390
347 3 1  0.000000 63.823082 70.361282 80.887665
348 3 1  0.000000 62.675011 71.163193 80.469604
349 3 1  0.000000 61.606804 72.736542 80.099281
350 3 1  0.000000 62.369942 71.877960 78.695518
351 3 1  0.000000 62.050465 73.581787 78.761826
352 3 1  0.000000 61.374809 74.091888 77.558823
353 3 1  0.000000 61.224846 75.626251 77.312233
354 3 1  0.000000 62.472736 75.817757 75.659668
355 3 1  0.000000 62.566708 76.642151 74.398048
356 3 1  0.000000 64.239410 75.725403 74.656357
357 3 1  0.000000 63.542355 76.998299 74.077194
358 3 1  0.000000 63.139099 77.630585 72.640915
359 3 1  0.000000 63.248695 79.335823 71.080505
360 3 1  0.000000 64.874504 79.528313 69.789200
361 3 1  0.000000 66.575371 78.733017 70.274780
362 3 1  0.000000 67.528236 77.195992 70.003708
363 3 1  0.000000 67.543213 75.426300 70.189217
364 3 1  0.000000 65.923149 73.784920 71.163010
365 3 1  0.000000 64.511597 74.265305 70.831047
366 3 1  0.000000 63.702057 73.459396 72.145966
367 3 1  0.000000 64.732285 72.968742 71.275421
368 3 1  0.000000 63.954876 71.217003 70.394753
369 3 1  0.000000 63.379028 69.782555 70.991524
370 3 1  0.000000 62.008579 67.974197 70.605759
371 3 1  0.000000 62.527058 68.411041 68.997414
372 3 1  0.000000 61.241089 67.560188 69.749657
373 3 1  0.000000 59.658852 68.428276 69.541595
374 3 1  0.000000 59.159351 67.506989 68.538017
375 3 1  0.000000 58.232933 67.174034 67.237053
376 3 1  0.000000 57.074368 66.880150 66.294907
377 3 1  0.000000 56.494576 65.418465 67.653404
378 3 1  0.000000 54.630756 64.799828 67.250320
379 3 1  0.000000 52.347862 65.135536 67.498489
380 3 1  0.000000 52.578777 64.351425 68.858467
381 3 1  0.000000 53.377346 65.612587 69.554710
382 3 1  0.000000 54.002262 65.623329 71.300995
383 3 1  0.000000 53.521130 67.626488 70.542473
384 3 1  0.000000 52.496220 69.370277 70.386360
385 3 1  0.000000 53.160145 68.986824 71.379189
386 3 1  0.000000 52.462162 70.669258 69.764618
387 3 1  0.000000 51.784092 71.462349 68.557968
388 3 1  0.000000 50.524754 72.473022 68.993683
389 3 1  0.000000 50.307480 73.138687 68.216881
390 3 1  0.000000 51.501896 73.844093 69.477402
391 3 1  0.000000 51.196426 75.641808 70.198280
392 3 1  0.000000 52.574383 76.314522 70.724731
393 3 1  0.000000 53.941891 77.559975 70.567146
394 3 1  0.000000 53.551113 76.528595 71.201286
395 3 1  0.000000 54.683201 76.173485 73.125290
396 3 1  0.000000 56.194469 76.956284 72.700142
397 3 1  0.000000 56.871811 77.539383 72.578979
398 3 1  0.000000 57.620087 77.177452 73.530960
399 3 1  0.000000 58.438301 77.819054 74.705574
400 3 1  0.000000 58.935974 78.440285 73.146896
401 4 1  0.000000 102.292793 74.581810 86.517380
402 4 1  0.000000 102.423325 73.379547 87.760704
403 4 1  0.000000 101.196846 73.283226 88.093124
404 4 1  0.000000 99.945442 72.691696 89.175949
405 4 1  0.000000 98.376030 72.021980 88.986252
406 4 1  0.000000 97.797623 71.981064 90.514076
407 4 1  0.000000 96.416466 72.635452 91.327736
408 4 1  0.000000 97.969131 72.232414 91.763237
409 4 1  0.000000 98.214577 72.588043 92.976654
410 4 1  0.000000 98.475014 73.597107 93.267410
411 4 1  0.000000 97.722794 75.405052 93.161263
412 4 1  0.000000 96.630104 74.658432 94.128204
413 4 1  0.000000 96.655701 75.511757 92.857285
414 4 1  0.000000 94.601471 75.649475 92.152115
415 4 1  0.000000 94.560822 77.255272 90.899033
416 4 1  0.000000 95.044617 76.181664 89.414215
417 4 1  0.000000 95.241028 75.473366 88.073830
418 4 1  0.000000 93.669197 75.486588 88.937675
419 4 1  0.000000 93.089752 74.455750 87.676521
420 4 1  0.000000 92.960037 72.922859 88.617905
421 4 1  0.000000 91.516869 72.693695 87.330452
422 4 1  0.000000 90.092232 73.106194 87.357353
423 4 1  0.000000 89.853500 73.270309 88.992912
424 4 1  0.000000 88.894394 73.443222 87.492897
425 4 1  0.000000 88.350456 74.621338 86.646729
426 4 1  0.000000 87.392097 75.042694 85.419037
427 4 1  0.000000 85.057205 75.860008 85.649742
428 4 1  0.000000 85.140167 76.531876 85.312996
429 4 1  0.000000 86.301903 76.019638 84.092857
430 4 1  0.000000 85.799324 76.930374 82.851753
431 4 1  0.000000 84.459137 78.044022 82.032860
432 4 1  0.000000 82.735992 78.366150 81.384506
433 4 1  0.000000 81.052467 78.964409 82.116066
434 4 1  0.000000 80.153618 79.995094 81.833313
435 4 1  0.000000 78.455101 79.834557 80.457245
436 4 1  0.000000 76.953598 78.938919 80.778145
437 4 1  0.000000 76.244728 77.727997 80.485275
438 4 1  0.000000 75.989235 77.091286 81.921844
439 4 1  0.000000 75.371254 76.015182 81.342117
440 4 1  0.000000 76.029007 75.156250 82.733429
441 4 1  0.000000 75.578926 75.564964 84.106522
442 4 1  0.000000 75.454376 75.328102 85.782013
443 4 1  0.000000 75.975945 75.058685 87.361694
444 4 1  0.000000 76.064293 73.823639 89.133255
445 4 1  0.000000 75.568504 74.296570 90.759888
446 4 1  0.000000 75.573158 74.938080 92.062889
447 4 1  0.000000 75.266396 75.670959 93.378334
448 4 1  0.000000 74.119141 74.411934 92.874062
449 4 1  0.000000 75.131287 73.989334 94.406326
450 4 1  0.000000 74.129936 75.217339 95.793877
451 4 1  0.000000 73.852425 74.440971 96.532455
452 4 1  0.000000 72.809563 74.193382 97.690987
453 4 1  0.000000 72.749847 73.766907 98.970139
454 4 1  0.000000 70.945435 72.887589 98.575714
455 4 1  0.000000 70.393295 72.684776 99.992905
456 4 1  0.000000 70.540932 71.324646 99.671043
457 4 1  0.000000 70.142914 71.513031 101.215805
458 4 1  0.000000 70.796501 71.648529 102.310944
459 4 1  0.000000 70.593254 72.807732 103.376801
460 4 1  0.000000 69.214966 72.749779 103.669586
461 4 1  0.000000 68.817757 73.754105 104.401382
462 4 1  0.000000 68.530060 74.818359 104.849403
463 4 1  0.000000 67.610558 75.515518 105.932732
464 4 1  0.000000 66.187119 74.834709 106.121994
465 4 1  0.000000 66.346649 76.545830 106.384254
466 4 1  0.000000 65.643906 77.606400 107.703033
467 4 1  0.000000 65.134888 77.490685 108.947266
468 4 1  0.000000 63.971607 76.698242 110.278008
469 4 1  0.000000 62.338352 75.551033 110.752312
470 4 1  0.000000 60.889400 75.407455 112.049103
471 4 1  0.000000 59.233948 74.881172 112.458221
472 4 1  0.000000 56.606377 74.554482 112.964378
473 4 1  0.000000 55.710503 74.203583 113.255310
474 4 1  0.000000 55.064434 73.489830 114.535133
475 4 1  0.000000 53.537350 74.227402 115.140221
476 4 1  0.000000 52.410099 75.036880 114.903488
477 4 1  0.000000 51.618515 75.983742 113.475784
478 4 1  0.000000 51.367065 74.378929 114.541573
479 4 1  0.000000 50.089039 73.244804 114.377174
480 4 1  0.000000 48.961781 72.362099 113.417633
481 4 1  0.000000 49.108093 73.968620 114.394012
482 4 1  0.000000 48.086327 74.188965 115.830826
483 4 1  0.000000 48.324692 74.343758 117.297516
484 4 1  0.000000 46.278759 73.946808 117.640701
485 4 1  0.000000 44.538246 73.645119 116.207878
486 4 1  0.000000 43.695946 74.493774 117.406189
487 4 1  0.000000 42.686523 75.171623 118.369270
488 4 1  0.000000 41.664249 75.839561 119.590370
489 4 1  0.000000 40.468815 75.924789 120.622902
490 4 1  0.000000 39.279007 76.017555 120.455276
491 4 1  0.000000 37.511917 77.150505 120.987946
492 4 1  0.000000 37.915855 75.795906 120.038872
493 4 1  0.000000 37.039734 76.095894 121.603531
494 4 1  0.000000 36.798717 75.567841 123.014603
495 4 1  0.000000 35.464451 74.919083 122.684647
496 4 1  0.000000 36.321659 75.581718 124.386711
497 4 1  0.000000 36.779766 75.219513 126.419914
498 4 1  0.000000 36.294708 74.791115 128.150116
499 4 1  0.000000 35.364433 73.165825 127.221062
500 4 1  0.000000 35.408432 71.809914 127.877182
501 5 1  0.000000 169.196686 92.195244 60.160686
502 5 1  0.000000 168.147491 91.711533 59.619213
503 5 1  0.000000 167.152924 90.384827 58.933121
504 5 1  0.000000 168.961792 90.926163 58.336876
505 5 1  0.000000 168.225403 90.471176 56.423733
506 5 1  0.000000 167.484970 89.619225 55.101879
507 5 1  0.000000 168.858978 89.248062 54.118519
508 5 1  0.000000 169.965576 88.360870 53.031891
509 5 1  0.000000 171.640259 88.159622 52.600780
510 5 1  0.000000 170.976410 87.885841 51.107372
511 5 1  0.000000 170.596420 88.039474 49.376980
512 5 1  0.000000 169.885986 89.095528 48.403442
513 5 1  0.000000 168.845383 87.958435 47.865311
514 5 1  0.000000 167.537338 87.775795 48.381744
515 5 1  0.000000 167.640701 88.908806 48.253487
516 5 1  0.000000 166.611954 88.208916 48.422863
517 5 1  0.000000 166.291382 89.863953 47.208233
518 5 1  0.000000 164.221130 89.737144 47.284470
519 5 1  0.000000 164.773849 88.423233 46.362816
520 5 1  0.000000 163.313889 89.704964 45.410046
521 5 1  0.000000 162.204346 88.129967 45.465794
522 5 1  0.000000 160.410599 88.764832 46.052658
523 5 1  0.000000 159.556519 89.533791 47.650967
524 5 1  0.000000 158.717056 88.979576 47.968124
525 5 1  0.000000 157.181000 89.043175 46.580734
526 5 1  0.000000 155.992371 89.986778 46.951824
527 5 1  0.000000 155.092575 90.971191 47.521511
528 5 1  0.000000 153.478180 91.338280 46.529079
529 5 1  0.000000 152.060242 91.743332 45.178047
530 5 1  0.000000 150.557770 92.395706 44.875008
531 5 1  0.000000 150.809494 93.987953 43.490173
532 5 1  0.000000 149.611801 92.814453 44.502094
533 5 1  0.000000 147.883362 93.025520 44.831696
534 5 1  0.000000 146.467590 92.940506 45.560165
535 5 1  0.000000 145.836426 92.517235 46.963909
536 5 1  0.000000 145.006699 92.221794 47.241898
537 5 1  0.000000 144.617767 92.012978 49.079506
538 5 1  0.000000 144.338013 90.675636 50.602180
539 5 1  0.000000 144.442108 91.410690 51.939789
540 5 1  0.000000 143.281601 91.232025 53.324856
541 5 1  0.000000 141.908447 90.951843 54.282963
542 5 1  0.000000 140.509918 89.735565 54.536438
543 5 1  0.000000 139.053680 88.740486 55.451496
544 5 1  0.000000 137.887344 87.875549 56.383694
545 5 1  0.000000 136.620392 87.625053 57.471199
546 5 1  0.000000 135.415497 87.384644 57.345905
547 5 1  0.000000 135.574875 88.791046 58.851353
548 5 1  0.000000 134.246658 89.519028 58.019405
549 5 1  0.000000 133.951935 89.587296 59.706623
550 5 1  0.000000 133.118561 90.807350 60.856575
551 5 1  0.000000 133.450562 88.884987 61.043350
552 5 1  0.000000 131.761368 88.560677 61.403240
553 5 1  0.000000 130.252045 88.705971 62.451817
554 5 1  0.000000 131.253235 88.646835 63.415764
555 5 1  0.000000 131.090897 88.841362 64.942192
556 5 1  0.000000 131.080612 90.083977 66.011917
557 5 1  0.000000 129.833664 91.300934 66.232109
558 5 1  0.000000 128.577850 91.968788 67.387169
559 5 1  0.000000 128.060333 93.331558 68.101608
560 5 1  0.000000 126.802162 92.720085 68.846832
561 5 1  0.000000 125.311798 92.596634 68.756195
562 5 1  0.000000 123.399643 91.742577 68.857788
563 5 1  0.000000 121.633034 91.139481 68.689659
564 5 1  0.000000 121.242065 89.303047 68.729286
565 5 1  0.000000 119.738144 89.346649 68.982803
566 5 1  0.000000 118.695999 88.087303 68.276352
567 5 1  0.000000 117.505371 88.060837 66.900536
568 5 1  0.000000 116.874191 87.511940 68.234779
569 5 1  0.000000 116.006264 86.869865 67.475525
570 5 1  0.000000 113.990784 86.856110 67.148376
571 5 1  0.000000 112.858589 86.127174 66.914726
572 5 1  0.000000 112.096901 85.564095 67.655052
573 5 1  0.000000 110.832977 85.134201 68.869781
574 5 1  0.000000 110.338737 85.197319 70.376114
575 5 1  0.000000 109.356087 86.376305 68.957916
576 5 1  0.000000 107.763245 85.646988 68.949753
577 5 1  0.000000 106.881058 86.335197 70.251312
578 5 1  0.000000 107.601662 84.918068 69.343849
579 5 1  0.000000 106.671181 84.807495 67.880440
580 5 1  0.000000 105.008179 84.922134 67.859833
581 5 1  0.000000 104.777824 84.205681 66.702858
582 5 1  0.000000 105.260216 83.556679 65.427704
583 5 1  0.000000 103.456322 81.927750 66.018845
584 5 1  0.000000 102.943390 80.385300 66.979767
585 5 1  0.000000 101.314911 80.465630 67.529724
586 5 1  0.000000 100.641159 79.611969 68.436554
587 5 1  0.000000 100.414452 79.757996 66.611725
588 5 1  0.000000 99.409019 79.980469 67.864677
589 5 1  0.000000 98.261383 78.672188 66.797829
590 5 1  0.000000 99.408218 78.186798 65.867760
591 5 1  0.000000 98.720673 77.035667 64.994484
592 5 1  0.000000 98.876854 75.532173 65.157578
593 5 1  0.000000 97.601562 75.761803 64.285789
594 5 1  0.000000 96.875969 74.023415 63.020752
595 5 1  0.000000 95.756401 73.298355 62.661896
596 5 1  0.000000 94.053261 74.007042 62.403122
597 5 1  0.000000 93.054131 73.807472 62.098595
598 5 1  0.000000 92.371391 73.600693 60.216911
599 5 1  0.000000 93.163063 74.489380 60.169312
600 5 1  0.000000 92.541275 72.532196 59.107430
601 6 1  0.000000 138.572006 84.872757 104.448441
602 6 1  0.000000 137.449005 83.173286 103.622025
603 6 1  0.000000 136.300674 83.954773 102.126289
604 6 1  0.000000 134.953690 84.668350 103.058586
605 6 1  0.000000 135.073669 86.220474 103.640961
606 6 1  0.000000 134.774216 87.363663 104.553497
607 6 1  0.000000 135.528076 89.165771 103.025406
608 6 1  0.000000 134.177841 89.570549 101.889450
609 6 1  0.000000 132.906708 90.326225 103.327705
610 6 1  0.000000 131.649902 89.626213 104.624718
611 6 1  0.000000 131.303940 91.251663 104.315834
612 6 1  0.000000 131.368408 91.593513 105.670082
613 6 1  0.000000 131.817291 93.162392 106.199211
614 6 1  0.000000 131.059616 93.105530 105.223312