Created with TaichiMD

1000 atoms
990 bonds
  0 angles
  0 dihedrals
  0 impropers

1 atom types
1 bond types
0 angle types
0 dihedral types
0 improper types

-80.00000  80.00000 xlo xhi
-80.00000  80.00000 ylo yhi
-80.00000  80.00000 zlo zhi

Masses

1  1.0000

Atoms

  1 0 1  0.000000 111.142578  5.377312 61.814342
  2 0 1  0.000000 112.587372  4.845111 61.710545
  3 0 1  0.000000 112.277733  6.036865 60.940327
  4 0 1  0.000000 112.965050  6.574970 59.647289
  5 0 1  0.000000 114.323715  6.928761 60.422085
  6 0 1  0.000000 115.346466  6.469444 59.504864
  7 0 1  0.000000 115.996368  6.185146 58.193447
  8 0 1  0.000000 116.597359  7.656698 57.738762
  9 0 1  0.000000 116.514626  8.897516 56.949806
 10 0 1  0.000000 115.069801  8.804397 56.339111
 11 0 1  0.000000 115.030708  7.988552 54.747852
 12 0 1  0.000000 113.833122  7.295958 55.176773
 13 0 1  0.000000 112.419617  6.869791 54.689102
 14 0 1  0.000000 110.943405  6.729757 55.538342
 15 0 1  0.000000 109.565201  6.487260 55.230865
 16 0 1  0.000000 108.591125  7.835747 55.450924
 17 0 1  0.000000 108.683762  7.008453 56.836391
 18 0 1  0.000000 107.326294  6.443439 56.924061
 19 0 1  0.000000 105.962227  6.971073 57.210350
 20 0 1  0.000000 105.368675  5.957455 58.047390
 21 0 1  0.000000 104.936729  4.499518 58.306084
 22 0 1  0.000000 103.929802  3.614949 58.723896
 23 0 1  0.000000 103.921577  4.850253 59.859776
 24 0 1  0.000000 102.443275  4.213958 60.370548
 25 0 1  0.000000 102.104340  3.895305 61.793198
 26 0 1  0.000000 102.442787  3.916697 63.309296
 27 0 1  0.000000 102.540703  3.350139 64.618996
 28 0 1  0.000000 102.497353  2.284157 65.764404
 29 0 1  0.000000 101.924332  2.278341 67.352478
 30 0 1  0.000000 101.707474  2.142634 68.935486
 31 0 1  0.000000 100.607719  2.639495 70.167923
 32 0 1  0.000000 100.294960  3.462052 71.274040
 33 0 1  0.000000 99.929428  4.554168 72.446533
 34 0 1  0.000000 99.791489  4.717209 73.935539
 35 0 1  0.000000 100.317604  4.542747 75.363663
 36 0 1  0.000000 101.409256  4.428960 74.131241
 37 0 1  0.000000 101.886963  4.428187 75.765236
 38 0 1  0.000000 103.021484  5.456218 75.858543
 39 0 1  0.000000 103.977562  6.394063 76.172882
 40 0 1  0.000000 104.654190  7.124793 75.020355
 41 0 1  0.000000 104.011536  8.316077 74.523628
 42 0 1  0.000000 103.199409  9.430179 73.749107
 43 0 1  0.000000 101.729271  9.828761 74.204567
 44 0 1  0.000000 101.373512  8.628666 73.486008
 45 0 1  0.000000 99.880127  9.225390 73.726433
 46 0 1  0.000000 98.176414  9.683749 73.461021
 47 0 1  0.000000 97.487137  9.441980 74.886208
 48 0 1  0.000000 96.445503  8.477839 74.584251
 49 0 1  0.000000 94.945000  7.773803 74.575249
 50 0 1  0.000000 94.413078  6.953435 75.941147
 51 0 1  0.000000 94.491409  5.550210 75.597694
 52 0 1  0.000000 94.423187  5.122206 77.120377
 53 0 1  0.000000 92.998856  5.321752 77.800995
 54 0 1  0.000000 91.718750  4.376966 77.856354
 55 0 1  0.000000 91.699120  2.944886 78.207024
 56 0 1  0.000000 92.156487  3.678431 79.652260
 57 0 1  0.000000 90.848663  3.225687 80.344696
 58 0 1  0.000000 89.570580  2.550347 80.481842
 59 0 1  0.000000 89.463646  0.916288 81.098274
 60 0 1  0.000000 88.108597  0.527769 80.241119
 61 0 1  0.000000 89.445923 -0.115923 79.800247
 62 0 1  0.000000 88.938049 -1.543747 79.278374
 63 0 1  0.000000 87.954605 -2.557820 78.472008
 64 0 1  0.000000 86.964668 -3.761817 78.553101
 65 0 1  0.000000 87.149658 -5.034607 79.351631
 66 0 1  0.000000 85.774620 -4.454338 78.583611
 67 0 1  0.000000 85.604660 -5.919445 78.988228
 68 0 1  0.000000 86.514420 -7.427958 78.605377
 69 0 1  0.000000 85.233185 -8.324555 77.606720
 70 0 1  0.000000 84.013618 -8.702700 78.241142
 71 0 1  0.000000 82.635727 -9.157252 78.947083
 72 0 1  0.000000 81.334061 -8.845446 78.184265
 73 0 1  0.000000 81.926491 -10.169829 78.767776
 74 0 1  0.000000 80.649742 -10.597939 78.936363
 75 0 1  0.000000 79.527588 -10.259961 77.907425
 76 0 1  0.000000 78.922005 -11.555153 78.367722
 77 0 1  0.000000 78.819092 -12.878533 77.459976
 78 0 1  0.000000 77.741386 -13.694767 76.269600
 79 0 1  0.000000 78.692436 -13.325756 75.019157
 80 0 1  0.000000 77.647850 -13.777661 73.956863
 81 0 1  0.000000 76.207130 -13.069352 74.043999
 82 0 1  0.000000 76.027153 -11.471515 74.137901
 83 0 1  0.000000 75.544510 -9.900131 74.172295
 84 0 1  0.000000 74.059410 -9.912366 73.840103
 85 0 1  0.000000 72.602173 -10.456280 73.810287
 86 0 1  0.000000 71.510567 -9.459758 73.402397
 87 0 1  0.000000 70.763741 -8.410879 72.545090
 88 0 1  0.000000 71.700775 -7.700711 71.846779
 89 0 1  0.000000 72.893166 -6.511211 71.918159
 90 0 1  0.000000 72.617271 -5.235009 72.592529
 91 0 1  0.000000 73.719421 -4.341502 73.581879
 92 0 1  0.000000 74.466690 -4.640131 74.852806
 93 0 1  0.000000 75.868851 -5.557652 74.967918
 94 0 1  0.000000 75.489029 -4.413587 75.870514
 95 0 1  0.000000 75.514824 -3.248683 76.843719
 96 0 1  0.000000 76.876495 -3.075378 77.449425
 97 0 1  0.000000 77.791718 -2.890882 78.523697
 98 0 1  0.000000 79.256439 -2.185106 78.343025
 99 0 1  0.000000 79.351875 -1.917834 76.642799
100 0 1  0.000000 80.063904 -3.216196 76.616638
101 1 1  0.000000 115.833839 39.719563 88.403915
102 1 1  0.000000 117.166359 39.336674 87.509926
103 1 1  0.000000 115.584991 39.115162 87.434464
104 1 1  0.000000 115.887909 37.574226 86.858719
105 1 1  0.000000 114.602440 36.740639 86.876778
106 1 1  0.000000 113.306259 36.350208 86.277588
107 1 1  0.000000 112.686729 35.016754 85.944122
108 1 1  0.000000 113.879074 35.372936 84.736427
109 1 1  0.000000 113.337494 35.012638 83.291229
110 1 1  0.000000 112.744148 34.829338 81.852798
111 1 1  0.000000 111.183311 35.499466 81.941498
112 1 1  0.000000 110.834213 37.017944 81.956749
113 1 1  0.000000 109.225731 37.318291 82.416290
114 1 1  0.000000 108.784348 36.661190 83.691452
115 1 1  0.000000 108.607399 36.474556 85.154678
116 1 1  0.000000 108.814949 35.090687 84.844650
117 1 1  0.000000 108.741211 34.346157 85.994125
118 1 1  0.000000 109.020447 32.958694 85.589027
119 1 1  0.000000 109.960052 31.711466 85.430145
120 1 1  0.000000 110.425499 30.800831 84.125221
121 1 1  0.000000 109.974442 30.237583 82.800125
122 1 1  0.000000 109.461906 31.612978 82.367119
123 1 1  0.000000 109.274971 32.525383 80.993027
124 1 1  0.000000 109.164917 32.950668 79.665680
125 1 1  0.000000 110.398643 32.775501 78.697792
126 1 1  0.000000 109.122704 33.764141 78.206825
127 1 1  0.000000 107.867790 34.716270 78.603798
128 1 1  0.000000 106.419533 35.411301 78.943199
129 1 1  0.000000 105.514305 36.400543 78.437622
130 1 1  0.000000 104.088997 36.189850 78.371506
131 1 1  0.000000 103.144753 36.455830 77.043098
132 1 1  0.000000 101.818321 36.260193 77.755386
133 1 1  0.000000 100.413292 35.763771 77.497559
134 1 1  0.000000 100.304405 35.291885 79.078613
135 1 1  0.000000 98.710197 35.252228 79.662834
136 1 1  0.000000 97.636002 35.977013 80.685539
137 1 1  0.000000 96.034439 36.531483 80.312881
138 1 1  0.000000 94.869934 37.391094 81.128815
139 1 1  0.000000 95.144455 36.108650 81.692924
140 1 1  0.000000 94.229080 35.079144 81.076118
141 1 1  0.000000 92.957756 35.365517 81.906075
142 1 1  0.000000 91.562477 35.093552 81.937767
143 1 1  0.000000 90.015297 35.195843 81.257790
144 1 1  0.000000 88.619141 34.378159 81.557976
145 1 1  0.000000 87.005295 34.587975 81.956482
146 1 1  0.000000 85.922829 35.156166 80.918327
147 1 1  0.000000 85.405487 36.433773 81.194267
148 1 1  0.000000 85.285927 37.166515 79.970535
149 1 1  0.000000 85.120995 38.225616 81.051651
150 1 1  0.000000 83.863586 38.929058 81.560341
151 1 1  0.000000 82.571861 38.032078 82.012169
152 1 1  0.000000 81.281967 37.098206 81.808563
153 1 1  0.000000 80.956039 38.266544 82.646683
154 1 1  0.000000 79.478050 38.188877 83.030029
155 1 1  0.000000 79.251869 39.454372 83.750443
156 1 1  0.000000 78.004059 38.951412 83.317909
157 1 1  0.000000 77.036201 39.631809 82.133759
158 1 1  0.000000 75.459267 39.599667 82.285179
159 1 1  0.000000 74.181999 38.801044 82.142303
160 1 1  0.000000 74.510994 37.646294 81.068794
161 1 1  0.000000 73.498695 36.521866 81.438179
162 1 1  0.000000 72.212982 36.454773 80.905891
163 1 1  0.000000 70.880219 36.635422 80.339760
164 1 1  0.000000 69.655785 37.496426 81.102821
165 1 1  0.000000 69.767731 38.876816 81.431763
166 1 1  0.000000 68.655273 39.973335 82.188942
167 1 1  0.000000 68.904099 41.367294 82.723419
168 1 1  0.000000 68.694817 41.212643 84.110405
169 1 1  0.000000 69.010994 42.628044 83.169685
170 1 1  0.000000 70.246346 43.615051 83.352364
171 1 1  0.000000 71.203987 44.425346 84.220985
172 1 1  0.000000 72.119247 43.523342 83.188293
173 1 1  0.000000 73.224648 44.313492 82.331406
174 1 1  0.000000 73.965004 45.589752 82.838898
175 1 1  0.000000 74.843155 46.725021 83.506401
176 1 1  0.000000 76.246521 46.249786 84.062225
177 1 1  0.000000 76.038681 47.208221 82.915245
178 1 1  0.000000 76.893326 48.321140 82.396408
179 1 1  0.000000 77.915611 49.007557 81.361221
180 1 1  0.000000 77.341988 50.458035 81.629997
181 1 1  0.000000 76.686905 51.885078 81.478996
182 1 1  0.000000 75.529266 52.879654 81.764626
183 1 1  0.000000 75.308929 54.252026 82.527916
184 1 1  0.000000 74.809593 55.435722 83.620285
185 1 1  0.000000 75.617958 56.342991 82.888710
186 1 1  0.000000 75.809784 57.811161 82.786156
187 1 1  0.000000 76.796783 58.865494 81.778931
188 1 1  0.000000 77.453178 60.176567 82.132469
189 1 1  0.000000 76.718178 60.649242 80.770172
190 1 1  0.000000 75.532509 61.239983 81.566010
191 1 1  0.000000 74.122231 61.248184 82.111923
192 1 1  0.000000 73.212540 60.288940 81.346352
193 1 1  0.000000 72.558990 59.540005 80.182343
194 1 1  0.000000 72.554184 60.896809 79.621284
195 1 1  0.000000 73.297241 60.777390 78.407845
196 1 1  0.000000 72.373581 61.459038 77.521873
197 1 1  0.000000 71.871880 62.237179 76.254364
198 1 1  0.000000 72.673958 63.041924 75.095711
199 1 1  0.000000 74.033279 62.960617 75.537071
200 1 1  0.000000 74.958496 62.131279 74.634270
201 2 1  0.000000 130.749374 44.191841 55.729786
202 2 1  0.000000 129.867722 43.486629 56.780945
203 2 1  0.000000 130.003830 42.586250 58.254543
204 2 1  0.000000 131.025314 43.245625 59.416985
205 2 1  0.000000 130.745422 44.561649 60.053066
206 2 1  0.000000 129.888718 44.029690 61.283180
207 2 1  0.000000 128.803253 43.503101 62.164997
208 2 1  0.000000 127.244446 42.980461 62.171101
209 2 1  0.000000 126.355598 44.096867 61.924156
210 2 1  0.000000 124.961487 43.440891 61.361374
211 2 1  0.000000 124.248276 42.963844 62.659725
212 2 1  0.000000 123.822006 43.673794 63.749306
213 2 1  0.000000 122.444763 43.336060 63.956081
214 2 1  0.000000 121.074944 43.542080 63.166912
215 2 1  0.000000 120.423759 42.043037 62.908596
216 2 1  0.000000 120.400742 41.199535 61.642414
217 2 1  0.000000 118.836998 41.284969 61.449192
218 2 1  0.000000 117.631134 41.930321 62.109417
219 2 1  0.000000 116.639648 40.805286 63.010548
220 2 1  0.000000 115.087448 41.238262 63.129078
221 2 1  0.000000 114.362160 40.492001 64.349068
222 2 1  0.000000 112.934204 39.778469 64.415222
223 2 1  0.000000 112.221306 39.407772 65.626129
224 2 1  0.000000 112.102554 37.957161 65.567955
225 2 1  0.000000 110.777939 37.435043 66.080345
226 2 1  0.000000 109.815018 36.477253 65.833694
227 2 1  0.000000 109.552261 35.965218 67.174690
228 2 1  0.000000 108.687775 34.985832 67.957016
229 2 1  0.000000 108.810135 35.537491 69.489227
230 2 1  0.000000 108.151100 34.220112 69.696770
231 2 1  0.000000 108.836403 34.640919 71.238800
232 2 1  0.000000 107.903152 34.735996 72.231308
233 2 1  0.000000 106.619362 33.973133 73.013031
234 2 1  0.000000 105.804565 35.302914 73.345039
235 2 1  0.000000 104.872276 36.146507 72.472694
236 2 1  0.000000 103.576561 35.395504 71.956818
237 2 1  0.000000 102.677673 34.312634 72.697411
238 2 1  0.000000 101.266747 35.244160 73.102379
239 2 1  0.000000 100.521866 34.922863 71.640755
240 2 1  0.000000 99.633987 36.091148 70.844421
241 2 1  0.000000 98.087975 36.330265 71.360535
242 2 1  0.000000 97.166679 36.678867 72.637039
243 2 1  0.000000 95.876884 37.337475 73.028305
244 2 1  0.000000 94.581055 37.821091 72.697159
245 2 1  0.000000 93.510612 37.330372 71.717918
246 2 1  0.000000 92.203903 38.141289 71.963211
247 2 1  0.000000 90.962738 38.993820 71.486725
248 2 1  0.000000 89.599274 39.846931 71.622932
249 2 1  0.000000 88.463814 40.723347 70.866447
250 2 1  0.000000 87.211281 40.921974 71.614334
251 2 1  0.000000 85.657875 41.202511 71.865715
252 2 1  0.000000 84.630669 42.077000 71.312317
253 2 1  0.000000 83.495552 42.045811 72.395493
254 2 1  0.000000 82.775513 43.101955 73.015778
255 2 1  0.000000 82.525948 44.340534 73.850609
256 2 1  0.000000 81.292183 44.580555 72.795418
257 2 1  0.000000 80.401207 45.866001 72.878632
258 2 1  0.000000 79.836769 45.468353 74.269119
259 2 1  0.000000 78.499535 44.566250 74.472832
260 2 1  0.000000 77.367569 45.715633 74.145279
261 2 1  0.000000 76.652634 46.627239 74.970367
262 2 1  0.000000 75.122360 46.206745 75.072899
263 2 1  0.000000 75.667351 47.025658 76.295204
264 2 1  0.000000 75.184013 46.278828 77.529297
265 2 1  0.000000 74.755676 47.792507 77.913208
266 2 1  0.000000 73.347298 47.291744 78.084862
267 2 1  0.000000 73.251122 48.233974 79.372971
268 2 1  0.000000 73.387245 49.630795 80.045189
269 2 1  0.000000 72.974243 50.600410 79.122574
270 2 1  0.000000 72.674507 51.867775 78.782516
271 2 1  0.000000 71.717094 52.544846 79.692528
272 2 1  0.000000 70.331215 52.247036 79.781502
273 2 1  0.000000 70.665802 53.528324 80.458252
274 2 1  0.000000 70.952484 53.709240 81.822708
275 2 1  0.000000 69.952415 54.669502 82.565666
276 2 1  0.000000 70.114716 55.964867 83.457024
277 2 1  0.000000 70.010002 57.403488 83.996193
278 2 1  0.000000 68.933823 58.067841 84.821381
279 2 1  0.000000 70.033035 58.260910 85.879524
280 2 1  0.000000 70.085449 59.735218 85.861389
281 2 1  0.000000 69.552086 60.721478 84.825531
282 2 1  0.000000 68.042900 61.308895 84.618317
283 2 1  0.000000 66.673256 61.848587 85.459030
284 2 1  0.000000 65.885262 60.762051 86.230614
285 2 1  0.000000 65.771088 61.296501 87.679024
286 2 1  0.000000 66.501015 60.242847 88.232384
287 2 1  0.000000 65.840660 59.322357 89.230042
288 2 1  0.000000 67.352539 59.051079 89.392815
289 2 1  0.000000 66.216202 58.628647 90.445038
290 2 1  0.000000 65.953178 58.911430 91.991432
291 2 1  0.000000 66.719902 58.962666 93.176704
292 2 1  0.000000 65.252937 59.300785 93.230057
293 2 1  0.000000 63.822136 58.758522 93.686523
294 2 1  0.000000 63.690403 60.264252 94.271828
295 2 1  0.000000 64.339691 59.431667 95.378830
296 2 1  0.000000 64.701180 58.896320 96.803238
297 2 1  0.000000 64.274368 57.497295 97.552437
298 2 1  0.000000 62.692398 57.352226 97.203133
299 2 1  0.000000 62.679230 55.813358 98.036301
300 2 1  0.000000 63.543987 55.486610 98.999962
301 3 1  0.000000 59.318783 70.149429 107.589745
302 3 1  0.000000 58.905880 69.507683 106.175842
303 3 1  0.000000 59.254051 70.593239 105.394226
304 3 1  0.000000 60.361691 71.720940 105.371681
305 3 1  0.000000 60.405087 71.705849 103.688179
306 3 1  0.000000 61.058479 71.315239 102.411125
307 3 1  0.000000 59.860542 71.634171 101.543022
308 3 1  0.000000 58.270504 71.445335 101.711533
309 3 1  0.000000 57.062981 70.495377 100.975502
310 3 1  0.000000 55.967102 69.855507 102.124405
311 3 1  0.000000 55.939972 68.657700 103.268646
312 3 1  0.000000 56.262783 67.286346 103.693176
313 3 1  0.000000 54.836563 66.988228 104.059456
314 3 1  0.000000 53.988270 66.597977 102.851227
315 3 1  0.000000 52.987030 66.248749 101.815742
316 3 1  0.000000 52.422897 66.607872 100.280731
317 3 1  0.000000 54.060287 66.132500 100.511963
318 3 1  0.000000 54.461895 66.285866 98.978401
319 3 1  0.000000 55.296474 64.978668 98.597786
320 3 1  0.000000 55.689091 63.471859 98.802940
321 3 1  0.000000 54.775650 63.544769 97.613907
322 3 1  0.000000 54.878998 63.425087 96.158150
323 3 1  0.000000 55.344471 62.326950 95.113197
324 3 1  0.000000 56.797161 62.390583 94.292114
325 3 1  0.000000 56.752258 63.151199 92.736061
326 3 1  0.000000 57.884365 62.352924 92.958023
327 3 1  0.000000 58.070438 61.003677 92.649223
328 3 1  0.000000 58.965431 60.518597 91.851311
329 3 1  0.000000 60.051933 59.448074 91.567703
330 3 1  0.000000 58.940735 58.224552 91.161987
331 3 1  0.000000 60.286934 57.514332 91.576828
332 3 1  0.000000 60.027557 56.224655 92.469940
333 3 1  0.000000 60.390438 55.096798 91.459892
334 3 1  0.000000 60.024220 53.506432 91.286873
335 3 1  0.000000 60.048523 54.005222 89.987175
336 3 1  0.000000 60.729542 52.885643 88.862305
337 3 1  0.000000 61.807178 51.941051 89.267792
338 3 1  0.000000 61.793671 50.583115 88.344376
339 3 1  0.000000 62.752312 50.040176 87.292778
340 3 1  0.000000 62.008724 49.624035 85.862343
341 3 1  0.000000 63.508377 48.878777 85.735130
342 3 1  0.000000 64.588326 48.049240 86.331741
343 3 1  0.000000 63.937946 46.731472 85.568840
344 3 1  0.000000 64.549385 46.794544 84.008568
345 3 1  0.000000 63.857109 46.221634 82.690315
346 3 1  0.000000 63.726460 45.288090 81.494392
347 3 1  0.000000 63.203510 44.699139 80.347816
348 3 1  0.000000 63.163292 43.199615 81.264503
349 3 1  0.000000 62.927128 41.666080 80.897331
350 3 1  0.000000 63.570030 40.650364 80.041031
351 3 1  0.000000 64.313560 40.377384 78.692284
352 3 1  0.000000 65.716454 40.205292 78.975082
353 3 1  0.000000 66.957413 41.074528 78.953751
354 3 1  0.000000 68.242409 42.007854 78.235542
355 3 1  0.000000 67.887604 42.735764 79.403984
356 3 1  0.000000 68.876938 43.848995 78.683304
357 3 1  0.000000 68.266479 45.059269 78.126671
358 3 1  0.000000 68.217239 46.268906 78.961601
359 3 1  0.000000 69.004852 47.590248 79.073288
360 3 1  0.000000 69.582771 47.295971 80.540565
361 3 1  0.000000 68.057266 46.915024 81.156143
362 3 1  0.000000 68.786438 47.531372 82.584854
363 3 1  0.000000 69.748573 48.465786 83.545631
364 3 1  0.000000 69.631241 49.807590 83.005798
365 3 1  0.000000 68.250648 50.311596 83.460388
366 3 1  0.000000 66.860817 50.900703 83.107391
367 3 1  0.000000 67.598694 52.021023 83.743805
368 3 1  0.000000 67.912384 52.292992 85.230125
369 3 1  0.000000 66.305595 52.203995 85.864288
370 3 1  0.000000 66.281815 53.408745 86.708832
371 3 1  0.000000 65.880280 54.759583 86.239258
372 3 1  0.000000 64.408005 54.803028 86.593567
373 3 1  0.000000 63.011124 55.453728 86.993095
374 3 1  0.000000 61.599686 55.891895 87.235527
375 3 1  0.000000 61.545048 57.141056 86.431282
376 3 1  0.000000 60.298256 56.908367 87.359344
377 3 1  0.000000 60.507706 58.431953 87.210655
378 3 1  0.000000 59.789070 59.900906 87.409622
379 3 1  0.000000 58.838749 60.728607 86.395691
380 3 1  0.000000 59.842930 60.561222 85.251678
381 3 1  0.000000 59.737747 60.953194 83.623260
382 3 1  0.000000 60.768555 62.047302 84.278503
383 3 1  0.000000 60.859741 63.321651 83.443680
384 3 1  0.000000 61.238235 64.242889 84.570503
385 3 1  0.000000 62.742882 64.134872 85.224068
386 3 1  0.000000 63.738857 64.610519 85.987541
387 3 1  0.000000 62.404362 64.373726 86.785950
388 3 1  0.000000 63.427795 65.426689 87.403580
389 3 1  0.000000 62.714111 65.361778 88.843147
390 3 1  0.000000 63.822002 66.122025 89.777534
391 3 1  0.000000 65.130440 66.525375 90.473862
392 3 1  0.000000 66.117928 67.913322 90.025291
393 3 1  0.000000 67.515182 67.471344 89.789536
394 3 1  0.000000 68.454659 66.916901 88.895882
395 3 1  0.000000 69.795128 66.507591 88.367874
396 3 1  0.000000 69.447136 65.967987 89.759819
397 3 1  0.000000 70.067200 64.826729 90.333397
398 3 1  0.000000 70.918549 63.439064 90.376205
399 3 1  0.000000 70.421356 62.206470 89.734634
400 3 1  0.000000 70.379204 62.471046 91.031364
401 4 1  0.000000 67.824486 57.789856 66.921509
402 4 1  0.000000 68.139206 59.141308 67.625847
403 4 1  0.000000 68.771019 58.892239 69.130600
404 4 1  0.000000 69.117172 58.924393 70.574165
405 4 1  0.000000 68.119667 58.359615 71.568993
406 4 1  0.000000 66.838448 57.461552 71.520378
407 4 1  0.000000 66.085640 58.341740 72.180710
408 4 1  0.000000 66.697983 58.428898 73.403366
409 4 1  0.000000 66.193382 59.758606 74.112915
410 4 1  0.000000 65.077919 60.344872 75.241638
411 4 1  0.000000 65.127853 61.861652 75.074585
412 4 1  0.000000 63.645416 62.608829 75.492775
413 4 1  0.000000 62.694195 61.885395 76.796280
414 4 1  0.000000 62.717945 61.282082 78.268234
415 4 1  0.000000 63.570843 62.645710 78.386559
416 4 1  0.000000 64.014252 63.117111 79.688072
417 4 1  0.000000 65.548531 62.545246 79.522537
418 4 1  0.000000 66.376938 61.299171 79.542656
419 4 1  0.000000 67.751236 61.994541 80.081871
420 4 1  0.000000 68.729881 63.305878 80.239662
421 4 1  0.000000 69.864014 63.491768 79.399757
422 4 1  0.000000 69.184135 63.800095 78.099434
423 4 1  0.000000 69.402466 65.537804 77.875107
424 4 1  0.000000 68.036156 66.085823 78.094879
425 4 1  0.000000 68.724983 67.181351 77.134102
426 4 1  0.000000 68.081093 67.605026 75.778542
427 4 1  0.000000 67.598427 67.839409 74.446823
428 4 1  0.000000 66.866623 68.421104 73.272766
429 4 1  0.000000 67.090630 69.479721 74.393921
430 4 1  0.000000 67.019753 71.085678 74.331718
431 4 1  0.000000 66.820908 72.060127 73.106560
432 4 1  0.000000 68.449852 72.223495 72.709373
433 4 1  0.000000 68.769768 73.162933 73.928925
434 4 1  0.000000 69.416862 74.293427 74.689163
435 4 1  0.000000 70.294594 73.141518 75.182823
436 4 1  0.000000 71.770401 73.834824 75.312805
437 4 1  0.000000 72.715813 72.991272 74.586845
438 4 1  0.000000 73.142517 72.141060 75.974243
439 4 1  0.000000 72.860832 70.520119 75.819809
440 4 1  0.000000 73.608543 69.636047 77.113274
441 4 1  0.000000 72.228645 69.533028 77.399788
442 4 1  0.000000 72.793671 69.651276 78.647903
443 4 1  0.000000 72.857506 69.210457 80.060074
444 4 1  0.000000 74.212769 68.798233 80.251938
445 4 1  0.000000 75.085037 67.583786 79.729408
446 4 1  0.000000 76.847565 67.257858 80.341263
447 4 1  0.000000 77.736366 66.841629 81.846779
448 4 1  0.000000 78.036179 68.092979 82.770355
449 4 1  0.000000 79.114113 67.032562 83.312225
450 4 1  0.000000 79.008385 65.652176 83.683067
451 4 1  0.000000 79.277016 64.765900 85.023582
452 4 1  0.000000 77.989479 64.645485 85.871399
453 4 1  0.000000 76.479408 64.350739 85.537361
454 4 1  0.000000 75.196228 65.247108 85.031212
455 4 1  0.000000 73.706284 65.381989 85.578865
456 4 1  0.000000 72.107964 65.900970 84.906319
457 4 1  0.000000 71.858871 66.069977 83.557297
458 4 1  0.000000 70.660820 65.116249 84.303558
459 4 1  0.000000 69.159103 65.546379 83.809647
460 4 1  0.000000 68.236137 66.741135 83.991776
461 4 1  0.000000 67.374985 65.658699 83.561180
462 4 1  0.000000 66.221756 66.138680 84.075027
463 4 1  0.000000 64.910965 66.527626 83.094467
464 4 1  0.000000 63.354710 66.977760 82.716537
465 4 1  0.000000 63.441322 68.086014 81.488853
466 4 1  0.000000 62.553730 69.207832 81.697273
467 4 1  0.000000 63.395088 70.218056 82.815857
468 4 1  0.000000 62.440140 70.845085 83.750870
469 4 1  0.000000 63.897446 71.058441 83.711502
470 4 1  0.000000 64.100891 70.408249 85.196472
471 4 1  0.000000 64.051865 70.011826 86.963417
472 4 1  0.000000 64.013191 70.729881 88.311691
473 4 1  0.000000 62.698147 71.336876 88.878151
474 4 1  0.000000 63.214378 71.665047 90.253876
475 4 1  0.000000 62.462185 72.842728 90.141510
476 4 1  0.000000 61.065495 73.339920 89.664825
477 4 1  0.000000 61.121742 74.311684 90.911407
478 4 1  0.000000 60.844414 75.457115 89.764992
479 4 1  0.000000 60.062817 75.627838 88.309784
480 4 1  0.000000 58.540474 75.770737 88.155449
481 4 1  0.000000 57.051540 75.649033 87.566696
482 4 1  0.000000 56.802311 75.444450 86.036293
483 4 1  0.000000 57.969284 74.997017 85.059654
484 4 1  0.000000 59.446243 74.267242 84.908653
485 4 1  0.000000 59.732155 73.053612 85.532333
486 4 1  0.000000 59.816135 71.617203 85.796997
487 4 1  0.000000 59.298752 70.708748 87.026062
488 4 1  0.000000 58.701374 70.168594 88.204140
489 4 1  0.000000 57.924828 70.313538 89.570488
490 4 1  0.000000 58.429947 69.991318 91.038071
491 4 1  0.000000 59.448696 70.289787 91.952065
492 4 1  0.000000 58.943214 69.090897 92.428207
493 4 1  0.000000 59.076080 68.669342 93.687294
494 4 1  0.000000 59.554539 67.170242 93.872162
495 4 1  0.000000 58.709049 66.299301 94.778984
496 4 1  0.000000 59.499359 67.000534 95.898720
497 4 1  0.000000 59.587765 65.508812 95.827034
498 4 1  0.000000 59.708637 65.905663 97.331787
499 4 1  0.000000 60.422356 64.897507 98.245750
500 4 1  0.000000 59.657539 63.660690 98.947136
501 5 1  0.000000 134.810181 95.228859 81.825363
502 5 1  0.000000 134.773407 93.616585 81.561653
503 5 1  0.000000 133.366531 93.698860 81.142090
504 5 1  0.000000 134.575500 93.055977 80.217720
505 5 1  0.000000 133.475891 91.927788 79.656281
506 5 1  0.000000 133.512222 90.363083 79.088943
507 5 1  0.000000 132.889557 90.320107 77.598564
508 5 1  0.000000 131.743240 90.769295 76.767540
509 5 1  0.000000 130.918304 91.915253 77.600006
510 5 1  0.000000 129.907532 91.963341 78.722153
511 5 1  0.000000 129.621170 93.363640 78.171127
512 5 1  0.000000 129.416763 94.239594 79.315979
513 5 1  0.000000 128.110870 94.874519 78.807442
514 5 1  0.000000 126.783607 94.175613 79.104774
515 5 1  0.000000 126.203964 94.038116 80.520058
516 5 1  0.000000 125.285957 94.322937 81.665710
517 5 1  0.000000 124.908844 92.932472 81.514954
518 5 1  0.000000 123.933609 91.749237 81.449867
519 5 1  0.000000 122.760155 90.901566 81.200470
520 5 1  0.000000 122.671188 89.788689 82.349564
521 5 1  0.000000 121.521538 89.425270 83.505981
522 5 1  0.000000 120.989044 88.675903 82.187103
523 5 1  0.000000 119.964973 87.843292 81.375122
524 5 1  0.000000 118.745155 88.510979 81.461044
525 5 1  0.000000 117.323975 88.152725 81.469925
526 5 1  0.000000 115.783211 88.329994 81.175728
527 5 1  0.000000 114.650955 89.289009 81.171211
528 5 1  0.000000 113.797264 88.091431 81.639679
529 5 1  0.000000 112.473228 88.117653 82.303375
530 5 1  0.000000 113.399010 87.730576 83.640633
531 5 1  0.000000 112.367279 87.994637 84.924911
532 5 1  0.000000 111.110809 87.206085 84.745621
533 5 1  0.000000 110.113106 88.581696 85.001511
534 5 1  0.000000 109.921722 89.768684 85.976143
535 5 1  0.000000 108.512459 89.212646 85.457649
536 5 1  0.000000 106.912048 88.755257 85.143044
537 5 1  0.000000 106.605782 89.582809 86.289040
538 5 1  0.000000 105.252052 89.579834 86.978600
539 5 1  0.000000 103.787834 89.469604 87.782341
540 5 1  0.000000 102.578934 88.764015 88.107567
541 5 1  0.000000 101.265862 88.218018 87.709900
542 5 1  0.000000 99.893532 88.967743 87.261108
543 5 1  0.000000 98.443657 88.722160 87.355713
544 5 1  0.000000 97.029854 88.801628 87.987686
545 5 1  0.000000 95.776741 89.710396 87.306633
546 5 1  0.000000 95.217865 89.087715 86.046753
547 5 1  0.000000 94.252495 87.963760 86.418747
548 5 1  0.000000 92.460648 88.060097 86.324875
549 5 1  0.000000 92.101608 87.917358 84.820992
550 5 1  0.000000 91.198502 87.345383 83.745758
551 5 1  0.000000 90.645363 85.946823 83.707375
552 5 1  0.000000 89.465836 85.010963 84.050468
553 5 1  0.000000 88.083664 84.579552 84.287354
554 5 1  0.000000 86.997673 84.445793 83.120468
555 5 1  0.000000 86.355423 83.306709 82.072044
556 5 1  0.000000 85.697151 84.536316 82.718079
557 5 1  0.000000 84.203613 84.399826 83.551903
558 5 1  0.000000 83.064957 84.487457 84.489677
559 5 1  0.000000 82.477226 82.917587 84.951439
560 5 1  0.000000 81.067863 83.243889 84.493515
561 5 1  0.000000 79.659904 82.818581 83.531158
562 5 1  0.000000 78.640060 82.110405 82.419319
563 5 1  0.000000 77.442253 82.768494 82.085327
564 5 1  0.000000 76.608818 82.390778 83.270447
565 5 1  0.000000 75.311119 83.263107 82.619537
566 5 1  0.000000 74.585785 81.985596 82.301247
567 5 1  0.000000 73.272339 81.172798 82.252274
568 5 1  0.000000 72.032623 80.623131 82.927834
569 5 1  0.000000 70.948402 81.298851 83.671700
570 5 1  0.000000 70.515533 82.584099 83.045364
571 5 1  0.000000 70.311371 84.236488 82.654572
572 5 1  0.000000 69.297684 83.484344 81.874054
573 5 1  0.000000 68.433632 84.100571 80.682877
574 5 1  0.000000 67.257416 84.834846 80.758186
575 5 1  0.000000 66.232384 85.350510 79.403381
576 5 1  0.000000 64.706810 84.761795 79.198990
577 5 1  0.000000 63.790855 83.808861 80.103996
578 5 1  0.000000 64.010300 82.217072 79.824249
579 5 1  0.000000 62.938110 81.212280 80.382576
580 5 1  0.000000 62.029541 80.631248 79.465897
581 5 1  0.000000 62.585583 79.037834 79.940147
582 5 1  0.000000 61.839539 78.445374 78.728958
583 5 1  0.000000 60.550896 78.140427 79.491142
584 5 1  0.000000 59.086712 77.492760 79.369774
585 5 1  0.000000 58.836586 78.879501 79.412903
586 5 1  0.000000 58.015907 80.281525 79.607552
587 5 1  0.000000 57.597977 79.844978 78.169228
588 5 1  0.000000 57.798958 81.236000 78.642838
589 5 1  0.000000 57.328121 82.613144 78.020340
590 5 1  0.000000 57.090557 83.337517 76.667618
591 5 1  0.000000 57.408981 84.751823 77.711807
592 5 1  0.000000 57.337368 86.369392 78.290085
593 5 1  0.000000 58.121265 87.723152 78.031105
594 5 1  0.000000 56.979137 88.487656 78.642609
595 5 1  0.000000 58.493961 88.727196 78.873726
596 5 1  0.000000 59.399551 88.833672 80.085785
597 5 1  0.000000 59.123955 87.718498 81.458321
598 5 1  0.000000 57.767834 87.468170 82.160942
599 5 1  0.000000 59.166039 86.971436 82.502823
600 5 1  0.000000 60.369740 86.106316 83.064850
601 6 1  0.000000 88.100929 106.099792 74.630844
602 6 1  0.000000 89.595787 105.665092 75.219719
603 6 1  0.000000 89.009941 106.097725 76.527153
604 6 1  0.000000 89.014496 105.268250 77.851456
605 6 1  0.000000 89.659950 105.700020 79.331581
606 6 1  0.000000 89.422401 105.100502 80.723129
607 6 1  0.000000 90.154495 103.848892 79.854042
608 6 1  0.000000 89.625008 102.595985 80.375893
609 6 1  0.000000 90.972488 102.161308 80.037476
610 6 1  0.000000 89.989761 101.223274 79.141151
611 6 1  0.000000 89.807846 100.432312 77.895592
612 6 1  0.000000 89.299850 99.627251 76.622757
613 6 1  0.000000 88.307648 98.430466 76.930244
614 6 1  0.000000 87.316109 99.210556 75.780083
615 6 1  0.000000 86.132881 99.067543 74.970146