Created with TaichiMD

1000 atoms
990 bonds
  0 angles
  0 dihedrals
  0 impropers

1 atom types
1 bond types
0 angle types
0 dihedral types
0 improper types

-80.00000  80.00000 xlo xhi
-80.00000  80.00000 ylo yhi
-80.00000  80.00000 zlo zhi

Masses

1 10.0000

Atoms

  1 0 1  0.000000 99.489861 -2.760241 70.942490
  2 0 1  0.000000 98.489784 -1.010498 71.675774
  3 0 1  0.000000 97.092033 -0.339083 72.342751
  4 0 1  0.000000 96.461525 -0.018988 74.331818
  5 0 1  0.000000 95.921143 -0.490501 74.548676
  6 0 1  0.000000 94.445206 -0.718579 75.592094
  7 0 1  0.000000 94.633362 -1.901766 76.311127
  8 0 1  0.000000 93.269966 -1.969336 76.660294
  9 0 1  0.000000 92.335983 -1.122340 77.489792
 10 0 1  0.000000 91.609756 -2.506714 76.669617
 11 0 1  0.000000 90.965378 -0.769910 77.031807
 12 0 1  0.000000 89.893745  0.291024 77.269814
 13 0 1  0.000000 89.146828 -0.914746 76.571609
 14 0 1  0.000000 87.726860 -2.481360 76.548203
 15 0 1  0.000000 86.990868 -1.816062 75.219154
 16 0 1  0.000000 88.039322 -0.242168 73.953278
 17 0 1  0.000000 88.764160  0.070828 72.773178
 18 0 1  0.000000 88.307480  0.452427 71.403458
 19 0 1  0.000000 87.219803  2.314456 71.770981
 20 0 1  0.000000 88.169739  4.181120 71.419388
 21 0 1  0.000000 86.673958  5.364388 70.287186
 22 0 1  0.000000 86.597870  7.534565 70.527641
 23 0 1  0.000000 87.618942  8.673064 71.406906
 24 0 1  0.000000 88.225311  9.539759 70.655731
 25 0 1  0.000000 89.567902  8.971274 71.564194
 26 0 1  0.000000 89.669022 10.451045 70.819946
 27 0 1  0.000000 89.669640 10.297362 69.614914
 28 0 1  0.000000 91.346756 10.511985 68.413834
 29 0 1  0.000000 93.418106 10.814698 67.757393
 30 0 1  0.000000 94.178886 11.174166 66.617523
 31 0 1  0.000000 93.209450 11.922729 64.998444
 32 0 1  0.000000 92.982780 12.579144 65.824936
 33 0 1  0.000000 91.982384 11.920490 64.805595
 34 0 1  0.000000 90.463799 12.751531 64.243347
 35 0 1  0.000000 90.351715 13.133421 62.983624
 36 0 1  0.000000 89.752182 14.230901 63.701534
 37 0 1  0.000000 88.375999 13.185136 63.460045
 38 0 1  0.000000 87.637878 12.045107 62.366920
 39 0 1  0.000000 86.472214 10.342260 63.215687
 40 0 1  0.000000 87.038048  8.928121 63.901428
 41 0 1  0.000000 86.376495  8.132709 62.182598
 42 0 1  0.000000 85.680542  7.075889 61.501465
 43 0 1  0.000000 86.213737  7.818899 59.722149
 44 0 1  0.000000 86.580872  6.940785 58.642540
 45 0 1  0.000000 88.328232  7.076112 59.714703
 46 0 1  0.000000 88.319206  6.149289 58.449665
 47 0 1  0.000000 88.270958  4.982448 56.880260
 48 0 1  0.000000 88.127708  4.063861 54.803947
 49 0 1  0.000000 87.444847  3.961293 53.284527
 50 0 1  0.000000 86.708267  2.853749 53.726532
 51 0 1  0.000000 85.838371  4.380143 54.149483
 52 0 1  0.000000 85.133728  5.452480 52.918106
 53 0 1  0.000000 83.468544  6.723550 53.139984
 54 0 1  0.000000 83.023949  7.638643 52.834724
 55 0 1  0.000000 83.633537  8.793554 52.787766
 56 0 1  0.000000 81.887558  9.804793 52.612606
 57 0 1  0.000000 81.617210 10.955694 51.236767
 58 0 1  0.000000 82.731461 12.326930 50.621731
 59 0 1  0.000000 81.550201 13.009533 49.408142
 60 0 1  0.000000 81.312881 14.563830 50.112362
 61 0 1  0.000000 80.843338 16.058352 51.077831
 62 0 1  0.000000 79.998756 15.050318 50.149097
 63 0 1  0.000000 79.039696 16.115593 50.318249
 64 0 1  0.000000 79.505753 16.981174 49.031151
 65 0 1  0.000000 80.025169 18.104332 48.748604
 66 0 1  0.000000 80.846779 19.773094 49.308533
 67 0 1  0.000000 81.979042 19.780487 50.392757
 68 0 1  0.000000 81.201576 19.814030 52.110935
 69 0 1  0.000000 81.320534 21.174761 52.616444
 70 0 1  0.000000 82.916557 22.210129 52.199699
 71 0 1  0.000000 83.803238 22.410313 50.932491
 72 0 1  0.000000 84.602425 23.177427 52.849117
 73 0 1  0.000000 85.852020 23.438883 52.684143
 74 0 1  0.000000 86.751160 24.083031 51.547718
 75 0 1  0.000000 86.601974 25.150074 50.240784
 76 0 1  0.000000 86.840080 26.161882 49.229439
 77 0 1  0.000000 85.022293 27.884136 48.968063
 78 0 1  0.000000 84.422768 29.247541 47.223915
 79 0 1  0.000000 84.347916 27.637438 45.437531
 80 0 1  0.000000 85.736275 28.738718 44.893497
 81 0 1  0.000000 86.076408 30.066711 43.133743
 82 0 1  0.000000 85.534264 28.693319 41.918354
 83 0 1  0.000000 85.328072 29.413042 40.722137
 84 0 1  0.000000 83.557297 29.185953 40.057545
 85 0 1  0.000000 84.169174 30.975681 40.130791
 86 0 1  0.000000 82.538338 30.108587 40.647648
 87 0 1  0.000000 81.892464 31.326950 39.407166
 88 0 1  0.000000 81.966812 31.048613 37.734619
 89 0 1  0.000000 80.485283 31.754211 36.338783
 90 0 1  0.000000 80.265251 31.206367 37.599201
 91 0 1  0.000000 79.554199 30.289551 36.328510
 92 0 1  0.000000 78.166664 31.268156 36.425709
 93 0 1  0.000000 78.041351 30.811255 34.929852
 94 0 1  0.000000 77.937477 29.735504 33.795101
 95 0 1  0.000000 76.449455 30.474226 34.530815
 96 0 1  0.000000 76.389420 28.474718 35.345406
 97 0 1  0.000000 77.715446 27.686064 36.342281
 98 0 1  0.000000 77.037727 26.239401 35.871822
 99 0 1  0.000000 77.314156 24.704929 36.449001
100 0 1  0.000000 78.360016 25.723349 36.068325
101 1 1  0.000000 86.306763 17.278959 82.045013
102 1 1  0.000000 84.780640 16.596006 82.222328
103 1 1  0.000000 83.545494 16.402225 83.373024
104 1 1  0.000000 83.005180 17.242603 84.851158
105 1 1  0.000000 83.571014 18.508099 85.417305
106 1 1  0.000000 83.439926 18.086637 86.790955
107 1 1  0.000000 82.799278 18.115582 88.921486
108 1 1  0.000000 83.171944 18.666746 90.409729
109 1 1  0.000000 84.617996 17.887470 90.183266
110 1 1  0.000000 84.138000 19.516481 90.569290
111 1 1  0.000000 83.858788 19.217550 91.882088
112 1 1  0.000000 85.549866 18.928463 92.402977
113 1 1  0.000000 85.491959 19.433680 94.048203
114 1 1  0.000000 86.097740 18.036875 95.009598
115 1 1  0.000000 86.276077 16.945175 95.771492
116 1 1  0.000000 84.843880 16.308310 97.145210
117 1 1  0.000000 82.773491 16.619411 97.494789
118 1 1  0.000000 80.943611 17.096453 99.133850
119 1 1  0.000000 78.948479 17.526081 99.523956
120 1 1  0.000000 78.468506 18.149414 98.221527
121 1 1  0.000000 77.049294 18.895679 99.083054
122 1 1  0.000000 76.814346 18.362059 100.676575
123 1 1  0.000000 75.631096 18.966679 101.555359
124 1 1  0.000000 74.398041 18.776377 100.386017
125 1 1  0.000000 72.602852 18.398348 100.800758
126 1 1  0.000000 72.131531 16.542883 101.449356
127 1 1  0.000000 70.306549 15.166552 101.212379
128 1 1  0.000000 70.677017 13.823653 99.983307
129 1 1  0.000000 69.660759 12.234113 99.816811
130 1 1  0.000000 68.855927 11.118756 99.946327
131 1 1  0.000000 67.403732 11.575962 98.834114
132 1 1  0.000000 66.302711 12.826651 100.282745
133 1 1  0.000000 65.776398 14.617056 99.327995
134 1 1  0.000000 65.768562 13.774601 100.222000
135 1 1  0.000000 65.911232 15.047444 101.492043
136 1 1  0.000000 66.498352 16.302929 102.367050
137 1 1  0.000000 65.126839 17.470083 103.180260
138 1 1  0.000000 64.543770 19.148521 103.849785
139 1 1  0.000000 62.899517 19.493185 104.461250
140 1 1  0.000000 62.157162 17.669813 103.326431
141 1 1  0.000000 60.636345 17.788269 102.893471
142 1 1  0.000000 60.053074 16.765512 101.901123
143 1 1  0.000000 60.704704 15.283762 103.161613
144 1 1  0.000000 59.558186 15.434623 102.534119
145 1 1  0.000000 58.408485 14.696332 103.120750
146 1 1  0.000000 58.702999 15.243565 104.426979
147 1 1  0.000000 57.736900 14.973613 105.579140
148 1 1  0.000000 56.570286 15.765294 105.698288
149 1 1  0.000000 57.436783 17.354141 105.798866
150 1 1  0.000000 56.025150 17.996498 104.292496
151 1 1  0.000000 54.477509 17.953375 106.070839
152 1 1  0.000000 53.223549 19.511990 106.701721
153 1 1  0.000000 52.300224 20.508728 107.364418
154 1 1  0.000000 50.576447 20.782267 107.634460
155 1 1  0.000000 50.169456 22.805206 108.125397
156 1 1  0.000000 48.077370 23.280748 107.641167
157 1 1  0.000000 48.051517 24.612606 107.463821
158 1 1  0.000000 48.096127 23.516222 106.897255
159 1 1  0.000000 48.169121 25.454521 106.511063
160 1 1  0.000000 47.198883 26.588181 105.771057
161 1 1  0.000000 45.859653 28.277479 105.815239
162 1 1  0.000000 45.142796 29.647160 106.822784
163 1 1  0.000000 45.409519 27.966862 107.735115
164 1 1  0.000000 44.066689 26.411530 107.841316
165 1 1  0.000000 43.270523 25.993017 107.235268
166 1 1  0.000000 42.347237 24.734646 108.317734
167 1 1  0.000000 41.153095 25.949337 109.030304
168 1 1  0.000000 40.574471 24.870239 110.521225
169 1 1  0.000000 41.118801 23.864922 111.775581
170 1 1  0.000000 42.595417 23.016201 111.929085
171 1 1  0.000000 43.520466 21.819866 112.227859
172 1 1  0.000000 44.198696 22.539413 113.278656
173 1 1  0.000000 45.711987 21.618099 112.517067
174 1 1  0.000000 44.218506 20.249636 112.748535
175 1 1  0.000000 44.768749 19.015059 113.245766
176 1 1  0.000000 43.172668 17.822969 112.414253
177 1 1  0.000000 42.459846 18.724628 112.717545
178 1 1  0.000000 41.363312 17.833334 112.493164
179 1 1  0.000000 39.846447 17.169735 113.443619
180 1 1  0.000000 39.420448 17.532804 112.497299
181 1 1  0.000000 38.236259 16.518278 111.975922
182 1 1  0.000000 38.378086 16.906549 110.245438
183 1 1  0.000000 36.948830 17.284143 109.414680
184 1 1  0.000000 38.009979 18.316090 108.635513
185 1 1  0.000000 38.281319 20.016172 108.919823
186 1 1  0.000000 36.767006 19.707567 108.739532
187 1 1  0.000000 35.363796 20.244093 108.621246
188 1 1  0.000000 35.211227 19.956329 110.217842
189 1 1  0.000000 33.833847 21.582102 110.622093
190 1 1  0.000000 32.535824 21.949606 110.045135
191 1 1  0.000000 31.532066 22.871616 109.678711
192 1 1  0.000000 32.175343 24.742502 110.246506
193 1 1  0.000000 30.810434 25.573328 110.779671
194 1 1  0.000000 29.098843 25.887926 110.080421
195 1 1  0.000000 28.508188 24.705656 110.208328
196 1 1  0.000000 27.491188 25.997299 110.056381
197 1 1  0.000000 26.782461 26.853006 108.464386
198 1 1  0.000000 25.296024 27.064608 107.682968
199 1 1  0.000000 24.471899 26.190344 106.804535
200 1 1  0.000000 23.770237 25.791651 105.289795
201 2 1  0.000000 53.504581 49.057468 76.656410
202 2 1  0.000000 54.018703 48.426346 77.751160
203 2 1  0.000000 55.100708 47.272362 77.596748
204 2 1  0.000000 55.433392 48.306381 79.070641
205 2 1  0.000000 54.065666 48.672989 79.957153
206 2 1  0.000000 54.352840 49.772873 80.721428
207 2 1  0.000000 53.690975 50.869179 81.493393
208 2 1  0.000000 53.629868 51.864033 81.398392
209 2 1  0.000000 54.525471 53.509476 80.266830
210 2 1  0.000000 53.111778 54.198738 78.911415
211 2 1  0.000000 52.733288 53.321369 77.656525
212 2 1  0.000000 52.211746 53.840446 76.054062
213 2 1  0.000000 53.235279 53.476257 76.494881
214 2 1  0.000000 54.324223 53.371536 75.409599
215 2 1  0.000000 55.746868 53.321629 75.368156
216 2 1  0.000000 57.687359 53.572037 75.345604
217 2 1  0.000000 59.534393 52.530205 74.841286
218 2 1  0.000000 60.850452 50.580395 74.486969
219 2 1  0.000000 61.795746 51.380722 75.755432
220 2 1  0.000000 62.613262 52.857353 74.401413
221 2 1  0.000000 63.356243 53.431114 72.892204
222 2 1  0.000000 63.552574 54.590668 72.318634
223 2 1  0.000000 64.915894 54.001484 72.118774
224 2 1  0.000000 66.591324 53.393246 71.273537
225 2 1  0.000000 67.973259 52.987366 70.083107
226 2 1  0.000000 68.491341 53.527752 69.084473
227 2 1  0.000000 68.957054 51.666691 67.811752
228 2 1  0.000000 68.483452 51.140156 68.815903
229 2 1  0.000000 68.257790 49.502460 69.301743
230 2 1  0.000000 69.087135 49.051079 68.135635
231 2 1  0.000000 68.592316 47.771107 68.590408
232 2 1  0.000000 68.966789 46.594189 68.048401
233 2 1  0.000000 68.172333 45.386749 67.513512
234 2 1  0.000000 70.040260 44.888527 67.547630
235 2 1  0.000000 71.539787 43.753868 66.454849
236 2 1  0.000000 71.033501 41.989048 65.128220
237 2 1  0.000000 70.057762 40.451786 65.291306
238 2 1  0.000000 68.898277 38.946110 66.715996
239 2 1  0.000000 69.013252 38.976002 65.421547
240 2 1  0.000000 67.373344 39.088177 65.523941
241 2 1  0.000000 66.198250 37.959984 64.720108
242 2 1  0.000000 65.961792 36.351528 65.187363
243 2 1  0.000000 64.444832 36.549797 65.414833
244 2 1  0.000000 63.354198 36.463684 67.046959
245 2 1  0.000000 63.820179 37.807449 66.885025
246 2 1  0.000000 62.741070 36.691303 66.681557
247 2 1  0.000000 60.832203 37.431740 67.754059
248 2 1  0.000000 60.108192 37.632061 69.429291
249 2 1  0.000000 59.960518 38.259464 71.466270
250 2 1  0.000000 60.308044 38.427937 72.739235
251 2 1  0.000000 61.440842 40.459061 71.487846
252 2 1  0.000000 62.440857 41.841923 70.977356
253 2 1  0.000000 62.664406 43.228249 72.361130
254 2 1  0.000000 63.115986 44.710888 72.509354
255 2 1  0.000000 64.330879 46.100700 72.312225
256 2 1  0.000000 65.623314 46.031307 72.571434
257 2 1  0.000000 67.055450 45.854340 72.300659
258 2 1  0.000000 66.641701 44.777866 73.702805
259 2 1  0.000000 67.278679 44.902157 74.949829
260 2 1  0.000000 66.633545 45.426636 76.304832
261 2 1  0.000000 67.205002 46.983341 77.659485
262 2 1  0.000000 69.069450 45.846233 78.138664
263 2 1  0.000000 68.780441 46.097092 79.636345
264 2 1  0.000000 67.822548 46.877972 79.910561
265 2 1  0.000000 67.141907 45.717766 80.823593
266 2 1  0.000000 66.612114 44.308846 82.379829
267 2 1  0.000000 67.917488 43.522427 81.606163
268 2 1  0.000000 68.436081 43.542755 82.882431
269 2 1  0.000000 67.842339 43.232441 84.584946
270 2 1  0.000000 67.414124 43.764500 86.331932
271 2 1  0.000000 67.567703 43.896271 87.689369
272 2 1  0.000000 69.117775 42.927258 89.254852
273 2 1  0.000000 68.183578 41.857101 91.147057
274 2 1  0.000000 66.943001 42.589180 91.909096
275 2 1  0.000000 67.873268 41.826385 92.278267
276 2 1  0.000000 68.170876 40.593277 93.458603
277 2 1  0.000000 67.516060 39.220619 94.160118
278 2 1  0.000000 69.036766 39.081703 94.045799
279 2 1  0.000000 69.327431 38.586121 95.684044
280 2 1  0.000000 70.582817 39.619713 95.322464
281 2 1  0.000000 69.500221 40.713959 96.229660
282 2 1  0.000000 69.660522 41.628975 97.931808
283 2 1  0.000000 69.787590 39.938271 99.245316
284 2 1  0.000000 69.866928 38.472752 98.975433
285 2 1  0.000000 69.413391 37.057987 99.597794
286 2 1  0.000000 68.792595 36.428974 97.635574
287 2 1  0.000000 68.924522 35.490513 98.869881
288 2 1  0.000000 70.824272 35.337036 99.828819
289 2 1  0.000000 72.568771 35.657303 99.301468
290 2 1  0.000000 73.371498 37.025566 98.002563
291 2 1  0.000000 73.909668 36.922546 97.243980
292 2 1  0.000000 75.500160 38.126011 97.949989
293 2 1  0.000000 77.175583 38.602932 98.045692
294 2 1  0.000000 79.241768 37.716358 97.745514
295 2 1  0.000000 80.680931 37.883869 98.110710
296 2 1  0.000000 81.031357 36.713524 98.002075
297 2 1  0.000000 80.116089 35.448933 97.654434
298 2 1  0.000000 81.940308 35.466980 99.011917
299 2 1  0.000000 83.181396 35.901703 99.404091
300 2 1  0.000000 83.624222 36.683228 99.793762
301 3 1  0.000000 95.830513 70.224022 102.313080
302 3 1  0.000000 95.158852 69.407806 104.432358
303 3 1  0.000000 93.573082 67.690689 105.449959
304 3 1  0.000000 92.610596 67.899551 104.047562
305 3 1  0.000000 93.370529 67.413826 104.120102
306 3 1  0.000000 91.336884 67.411598 104.973244
307 3 1  0.000000 90.230530 67.142448 103.405685
308 3 1  0.000000 89.536263 66.020973 103.436577
309 3 1  0.000000 89.111221 65.397362 104.651512
310 3 1  0.000000 88.533951 63.869514 104.512428
311 3 1  0.000000 87.087120 63.884174 104.079834
312 3 1  0.000000 87.334518 62.982559 102.561226
313 3 1  0.000000 87.404259 62.485138 100.509476
314 3 1  0.000000 88.544670 63.558483 99.698364
315 3 1  0.000000 90.109055 62.824677 98.236832
316 3 1  0.000000 90.399406 62.830067 96.816963
317 3 1  0.000000 89.166176 62.874737 96.353485
318 3 1  0.000000 87.690285 62.403004 95.435310
319 3 1  0.000000 86.268463 62.685253 93.996902
320 3 1  0.000000 85.735130 64.026268 94.269379
321 3 1  0.000000 85.459053 64.170158 93.081779
322 3 1  0.000000 85.128128 65.098801 91.899101
323 3 1  0.000000 84.662560 66.639580 90.866714
324 3 1  0.000000 83.198540 65.954613 91.852058
325 3 1  0.000000 82.364372 64.824104 90.286545
326 3 1  0.000000 80.779053 64.917198 88.871208
327 3 1  0.000000 81.241386 65.880661 87.116829
328 3 1  0.000000 79.883209 66.945335 86.375481
329 3 1  0.000000 78.793205 68.506836 85.728188
330 3 1  0.000000 77.187965 69.019409 86.384445
331 3 1  0.000000 77.834969 69.077171 85.067741
332 3 1  0.000000 76.993057 67.888695 83.920830
333 3 1  0.000000 75.727524 68.259659 83.767479
334 3 1  0.000000 75.438805 67.205750 84.411980
335 3 1  0.000000 74.585922 65.882217 83.959534
336 3 1  0.000000 73.215050 64.656982 84.314064
337 3 1  0.000000 71.429970 64.512268 83.357933
338 3 1  0.000000 72.027077 66.342781 84.141968
339 3 1  0.000000 71.106018 64.849823 84.115013
340 3 1  0.000000 70.427551 66.021484 83.651154
341 3 1  0.000000 68.914032 66.368889 83.416176
342 3 1  0.000000 69.062531 68.572617 83.083435
343 3 1  0.000000 68.766747 69.830421 82.583107
344 3 1  0.000000 68.594299 69.571121 80.993401
345 3 1  0.000000 67.387665 68.945442 80.563957
346 3 1  0.000000 65.836990 69.294472 80.832939
347 3 1  0.000000 64.582047 70.856918 81.352325
348 3 1  0.000000 64.438782 71.068047 79.947365
349 3 1  0.000000 63.738152 72.904190 80.360374
350 3 1  0.000000 63.373615 71.503227 79.305672
351 3 1  0.000000 62.701202 71.519691 78.001396
352 3 1  0.000000 62.127075 72.960182 77.678856
353 3 1  0.000000 62.138329 74.304276 76.561508
354 3 1  0.000000 61.389931 76.259438 75.851776
355 3 1  0.000000 63.017998 75.757019 75.158012
356 3 1  0.000000 64.081245 77.058395 74.531639
357 3 1  0.000000 62.904034 77.715828 72.953484
358 3 1  0.000000 63.485630 79.071480 72.324738
359 3 1  0.000000 64.827522 78.019180 71.572388
360 3 1  0.000000 65.618202 78.882126 70.788841
361 3 1  0.000000 65.581329 77.749176 69.389580
362 3 1  0.000000 66.321457 76.452362 69.163185
363 3 1  0.000000 66.696426 75.386253 69.231857
364 3 1  0.000000 65.838020 74.999893 70.543243
365 3 1  0.000000 64.610313 74.591888 70.710442
366 3 1  0.000000 63.257233 73.230827 70.505592
367 3 1  0.000000 62.760445 71.700874 71.161331
368 3 1  0.000000 63.074009 70.277725 70.099419
369 3 1  0.000000 63.825260 69.307083 69.892326
370 3 1  0.000000 61.975933 69.112541 69.714325
371 3 1  0.000000 61.862915 67.986435 68.495476
372 3 1  0.000000 61.474022 66.736160 68.553864
373 3 1  0.000000 59.868114 67.008636 68.880577
374 3 1  0.000000 59.346485 68.284714 67.989197
375 3 1  0.000000 58.546242 67.346962 66.685211
376 3 1  0.000000 57.201015 66.785706 67.683777
377 3 1  0.000000 55.152599 67.064690 66.294968
378 3 1  0.000000 53.647800 65.837059 66.374451
379 3 1  0.000000 53.263718 64.612328 67.554901
380 3 1  0.000000 51.983055 65.317421 67.960114
381 3 1  0.000000 52.353519 65.586945 69.942619
382 3 1  0.000000 51.800606 67.365608 70.479614
383 3 1  0.000000 52.846939 68.504417 71.746178
384 3 1  0.000000 52.705059 68.346970 70.290039
385 3 1  0.000000 52.512741 70.420990 71.549149
386 3 1  0.000000 53.720215 70.116814 70.605286
387 3 1  0.000000 53.017559 71.006844 70.006966
388 3 1  0.000000 51.802277 72.424385 68.979637
389 3 1  0.000000 50.543114 72.947647 68.389969
390 3 1  0.000000 50.281128 74.250313 69.389091
391 3 1  0.000000 51.962502 74.028511 69.925774
392 3 1  0.000000 52.509933 75.347832 69.369171
393 3 1  0.000000 53.366226 76.790962 70.281448
394 3 1  0.000000 54.333397 77.114914 71.316322
395 3 1  0.000000 54.579590 75.784409 70.541710
396 3 1  0.000000 55.568043 76.190392 71.819527
397 3 1  0.000000 56.767071 75.993759 72.436607
398 3 1  0.000000 57.136600 76.444740 73.489014
399 3 1  0.000000 57.787655 77.176315 74.196266
400 3 1  0.000000 58.956360 78.100136 73.924553
401 4 1  0.000000 101.380905 74.976471 86.050987
402 4 1  0.000000 101.909607 73.795715 86.813530
403 4 1  0.000000 100.733253 72.873291 86.648293
404 4 1  0.000000 100.847466 71.284683 87.566162
405 4 1  0.000000 99.917938 72.276207 88.267403
406 4 1  0.000000 98.604202 71.652740 88.826447
407 4 1  0.000000 98.011177 71.999718 90.368370
408 4 1  0.000000 98.431770 71.420464 91.884254
409 4 1  0.000000 98.456528 72.810364 92.943695
410 4 1  0.000000 98.229881 73.909912 93.666168
411 4 1  0.000000 98.412613 75.840034 93.134201
412 4 1  0.000000 97.054596 75.501381 94.432770
413 4 1  0.000000 96.424393 75.396141 93.501106
414 4 1  0.000000 95.319786 75.173462 92.026131
415 4 1  0.000000 95.399567 74.387718 90.671379
416 4 1  0.000000 96.435905 75.126228 89.648460
417 4 1  0.000000 95.824951 74.404510 88.470062
418 4 1  0.000000 94.939148 73.823059 87.003601
419 4 1  0.000000 93.481178 74.123520 87.737595
420 4 1  0.000000 94.353729 72.771629 87.733940
421 4 1  0.000000 92.510017 72.377121 88.025505
422 4 1  0.000000 91.700638 73.541283 88.523567
423 4 1  0.000000 90.150612 73.374817 89.161720
424 4 1  0.000000 89.107201 73.501869 87.594780
425 4 1  0.000000 88.096146 74.726593 87.668015
426 4 1  0.000000 87.725327 76.217743 87.975174
427 4 1  0.000000 86.238892 75.609383 86.259880
428 4 1  0.000000 85.752991 75.940544 85.022064
429 4 1  0.000000 84.130058 76.494118 83.325737
430 4 1  0.000000 84.268761 77.198700 81.898773
431 4 1  0.000000 83.847366 77.696854 80.350914
432 4 1  0.000000 82.718628 78.732292 80.163246
433 4 1  0.000000 81.017265 79.480728 80.575752
434 4 1  0.000000 79.929878 79.080070 80.668716
435 4 1  0.000000 78.393944 79.509071 80.287201
436 4 1  0.000000 77.109001 78.922729 79.406586
437 4 1  0.000000 75.459404 78.432549 79.729431
438 4 1  0.000000 74.960434 76.909218 81.334587
439 4 1  0.000000 74.926613 75.827011 81.244926
440 4 1  0.000000 75.476395 76.251419 82.815598
441 4 1  0.000000 75.276138 76.078346 84.397850
442 4 1  0.000000 75.477989 76.031792 85.883682
443 4 1  0.000000 75.920303 75.320297 87.075890
444 4 1  0.000000 75.417007 73.970520 88.073257
445 4 1  0.000000 75.731354 74.752510 89.435379
446 4 1  0.000000 75.883049 75.329376 90.664055
447 4 1  0.000000 74.954628 75.903214 91.773163
448 4 1  0.000000 75.916817 75.274605 93.031822
449 4 1  0.000000 76.809578 73.659180 94.185135
450 4 1  0.000000 74.565849 73.192284 94.942986
451 4 1  0.000000 73.666267 74.480118 95.148643
452 4 1  0.000000 72.954544 74.719521 97.357071
453 4 1  0.000000 71.842094 73.543030 97.260513
454 4 1  0.000000 70.922462 72.451416 98.700027
455 4 1  0.000000 69.584694 72.266968 98.570518
456 4 1  0.000000 70.538277 72.011917 99.558311
457 4 1  0.000000 69.605309 70.943817 100.465752
458 4 1  0.000000 70.537186 71.390450 101.704796
459 4 1  0.000000 70.002792 71.070633 103.092369
460 4 1  0.000000 69.992630 72.251259 104.632416
461 4 1  0.000000 70.346771 72.321266 105.465782
462 4 1  0.000000 69.505203 73.656456 105.652336
463 4 1  0.000000 69.630943 75.601845 106.060799
464 4 1  0.000000 67.926117 75.700516 105.798225
465 4 1  0.000000 66.527519 75.667824 106.668030
466 4 1  0.000000 65.344452 75.858253 108.348206
467 4 1  0.000000 63.717060 75.413315 108.010727
468 4 1  0.000000 63.493355 74.946686 109.742874
469 4 1  0.000000 62.493084 76.064705 110.736549
470 4 1  0.000000 60.921463 75.550240 111.166695
471 4 1  0.000000 60.177662 75.320404 112.168022
472 4 1  0.000000 58.252815 74.445244 113.244148
473 4 1  0.000000 56.949894 74.706673 113.277649
474 4 1  0.000000 55.045734 75.104149 114.372253
475 4 1  0.000000 54.194004 73.852226 115.362862
476 4 1  0.000000 53.566200 74.852272 114.955696
477 4 1  0.000000 52.314064 76.084091 114.319420
478 4 1  0.000000 51.284267 74.664009 113.644455
479 4 1  0.000000 50.592121 73.764053 114.607323
480 4 1  0.000000 49.393253 74.431084 114.080688
481 4 1  0.000000 47.910374 74.777214 115.668777
482 4 1  0.000000 48.430122 75.040939 117.261086
483 4 1  0.000000 46.766983 75.288933 117.065544
484 4 1  0.000000 45.154869 75.968788 116.652786
485 4 1  0.000000 45.373260 74.667114 118.116241
486 4 1  0.000000 44.422344 75.615173 119.294640
487 4 1  0.000000 42.867043 75.508698 119.457733
488 4 1  0.000000 41.430401 75.279526 120.418465
489 4 1  0.000000 40.265106 75.619392 121.352097
490 4 1  0.000000 39.247883 75.887993 120.560455
491 4 1  0.000000 39.565220 77.085014 121.379112
492 4 1  0.000000 37.909943 77.819809 121.045837
493 4 1  0.000000 36.952442 76.483086 121.872917
494 4 1  0.000000 36.215160 75.356888 122.288422
495 4 1  0.000000 35.420578 74.929611 124.114449
496 4 1  0.000000 34.546696 73.635056 124.840187
497 4 1  0.000000 34.295486 73.884506 126.000816
498 4 1  0.000000 35.092316 73.297516 126.968117
499 4 1  0.000000 34.735451 71.451714 127.495026
500 4 1  0.000000 34.107441 70.525284 127.399483
501 5 1  0.000000 167.627213 92.058929 60.303478
502 5 1  0.000000 168.070511 90.789040 59.623402
503 5 1  0.000000 168.164368 88.949295 58.670769
504 5 1  0.000000 167.416794 89.771622 57.194500
505 5 1  0.000000 168.974945 89.205566 56.887249
506 5 1  0.000000 168.490082 89.270615 55.493420
507 5 1  0.000000 167.969864 89.135353 54.196888
508 5 1  0.000000 169.421158 89.336891 53.300407
509 5 1  0.000000 169.992538 88.600014 51.430004
510 5 1  0.000000 170.972855 89.201492 50.029125
511 5 1  0.000000 169.566254 88.968422 49.527031
512 5 1  0.000000 169.189255 89.956573 49.719315
513 5 1  0.000000 167.774216 88.952881 49.240589
514 5 1  0.000000 167.892029 88.056465 47.859268
515 5 1  0.000000 166.970596 88.069725 46.676636
516 5 1  0.000000 166.073502 89.514053 47.455395
517 5 1  0.000000 164.486038 89.015160 47.765858
518 5 1  0.000000 163.539154 89.827705 46.693722
519 5 1  0.000000 163.978088 89.450462 44.985603
520 5 1  0.000000 162.707397 88.329102 46.454185
521 5 1  0.000000 161.527588 89.219910 45.538818
522 5 1  0.000000 160.673935 88.579704 46.916813
523 5 1  0.000000 159.714340 89.808311 46.363960
524 5 1  0.000000 158.822357 89.375969 47.104809
525 5 1  0.000000 157.032089 90.438820 47.545757
526 5 1  0.000000 155.134216 90.226379 46.757057
527 5 1  0.000000 153.338715 90.400810 46.414925
528 5 1  0.000000 153.026871 91.490318 45.406075
529 5 1  0.000000 151.501892 92.114159 45.533142
530 5 1  0.000000 150.343765 91.847702 44.520592
531 5 1  0.000000 148.970596 92.898552 45.271736
532 5 1  0.000000 147.198242 93.926643 45.206589
533 5 1  0.000000 147.932297 92.341164 45.578571
534 5 1  0.000000 146.960144 93.254440 46.729816
535 5 1  0.000000 145.032242 92.546188 47.397259
536 5 1  0.000000 144.704407 91.552017 48.317192
537 5 1  0.000000 143.748779 90.443352 49.884480
538 5 1  0.000000 143.960800 90.653435 51.916740
539 5 1  0.000000 143.618286 89.518539 53.089096
540 5 1  0.000000 142.996429 89.960747 55.069672
541 5 1  0.000000 141.514526 89.457817 55.537842
542 5 1  0.000000 139.927017 89.437820 55.274487
543 5 1  0.000000 138.405411 88.853310 55.641716
544 5 1  0.000000 137.087296 87.903671 56.152977
545 5 1  0.000000 135.611984 86.971710 56.590317
546 5 1  0.000000 134.545944 87.102119 57.732960
547 5 1  0.000000 134.305939 88.755463 56.982056
548 5 1  0.000000 134.316940 90.159767 58.592045
549 5 1  0.000000 133.280106 91.381477 59.378189
550 5 1  0.000000 133.459290 90.909645 60.925285
551 5 1  0.000000 132.609421 89.424446 62.194340
552 5 1  0.000000 132.067184 88.850220 61.279221
553 5 1  0.000000 130.726639 89.574135 60.857693
554 5 1  0.000000 130.901306 88.879265 62.752579
555 5 1  0.000000 130.326874 90.522804 63.717548
556 5 1  0.000000 130.014786 90.955406 65.136055
557 5 1  0.000000 128.942154 90.983658 66.362846
558 5 1  0.000000 127.694374 92.047951 67.199600
559 5 1  0.000000 126.067535 92.177635 67.545700
560 5 1  0.000000 124.646408 92.627289 68.905800
561 5 1  0.000000 123.288010 91.732063 68.812096
562 5 1  0.000000 121.723839 91.237183 69.692055
563 5 1  0.000000 122.005661 89.755928 70.143501
564 5 1  0.000000 120.332703 89.378777 69.652100
565 5 1  0.000000 118.583923 88.934235 69.535896
566 5 1  0.000000 117.248291 89.583771 68.608826
567 5 1  0.000000 116.233620 88.256424 68.182259
568 5 1  0.000000 114.766823 88.340759 67.444633
569 5 1  0.000000 114.495354 86.571671 67.902649
570 5 1  0.000000 113.057175 86.114075 66.581955
571 5 1  0.000000 111.928207 86.671432 66.879250
572 5 1  0.000000 110.703827 86.155281 67.747345
573 5 1  0.000000 111.090469 85.445229 69.591431
574 5 1  0.000000 110.226143 84.039566 70.054878
575 5 1  0.000000 108.792320 84.317612 71.226341
576 5 1  0.000000 107.314384 85.368256 70.789345
577 5 1  0.000000 105.762260 84.878380 70.020477
578 5 1  0.000000 105.013252 84.829361 68.407280
579 5 1  0.000000 105.055145 85.603119 67.553497
580 5 1  0.000000 103.854111 86.259750 68.200012
581 5 1  0.000000 102.955154 84.914093 67.396057
582 5 1  0.000000 103.112823 83.398903 66.840103
583 5 1  0.000000 102.973885 81.856804 67.657143
584 5 1  0.000000 102.441803 80.819695 67.621445
585 5 1  0.000000 102.734612 79.484322 68.352547
586 5 1  0.000000 101.083656 79.272797 68.754189
587 5 1  0.000000 99.968483 78.566902 68.044189
588 5 1  0.000000 98.658905 79.757889 67.385826
589 5 1  0.000000 98.707718 78.216278 66.200455
590 5 1  0.000000 98.285843 78.272751 64.682915
591 5 1  0.000000 97.391800 77.308067 65.073471
592 5 1  0.000000 97.306892 76.161224 64.515068
593 5 1  0.000000 96.114075 75.380997 64.104919
594 5 1  0.000000 94.381172 74.757675 64.126762
595 5 1  0.000000 94.363434 73.911987 63.936905
596 5 1  0.000000 92.976158 73.597794 64.786064
597 5 1  0.000000 91.507523 73.742714 64.045578
598 5 1  0.000000 90.818283 75.173653 62.444023
599 5 1  0.000000 91.135796 74.084396 61.116791
600 5 1  0.000000 91.582817 73.423309 62.168766
601 6 1  0.000000 138.107147 83.113907 104.284439
602 6 1  0.000000 136.904770 84.374046 103.077148
603 6 1  0.000000 138.371796 83.957306 102.098885
604 6 1  0.000000 137.092346 84.320984 103.089821
605 6 1  0.000000 135.787415 85.299103 103.627533
606 6 1  0.000000 135.744415 87.142235 103.526085
607 6 1  0.000000 134.607468 88.741074 103.581039
608 6 1  0.000000 135.655899 89.941284 104.001678
609 6 1  0.000000 134.319763 90.217598 102.358612
610 6 1  0.000000 133.025284 89.741829 103.000191
611 6 1  0.000000 132.701019 91.107651 104.618935
612 6 1  0.000000 131.658325 91.621635 105.637115
613 6 1  0.000000 131.589737 92.584816 106.135902
614 6 1  0.000000 130.389481 93.212219 106.331429