Created with TaichiMD

1000 atoms
990 bonds
  0 angles
  0 dihedrals
  0 impropers

1 atom types
1 bond types
0 angle types
0 dihedral types
0 improper types

-80.00000  80.00000 xlo xhi
-80.00000  80.00000 ylo yhi
-80.00000  80.00000 zlo zhi

Masses

1 10.0000

Atoms

  1 0 1  0.000000  3.783261 19.979218 80.004471
  2 0 1  0.000000  5.310932 20.018394 80.007202
  3 0 1  0.000000  6.855494 20.000530 80.002121
  4 0 1  0.000000  8.384716 19.991524 79.997360
  5 0 1  0.000000  9.922565 19.984165 80.015335
  6 0 1  0.000000 11.451628 19.984215 79.995056
  7 0 1  0.000000 13.009863 19.980175 80.010315
  8 0 1  0.000000 14.549569 20.001835 80.003983
  9 0 1  0.000000 16.101789 19.997101 80.019562
 10 0 1  0.000000 17.634438 20.011642 79.985138
 11 0 1  0.000000 19.183025 20.011051 79.995178
 12 0 1  0.000000 20.700563 19.991016 80.013000
 13 0 1  0.000000 22.248806 19.981403 80.007950
 14 0 1  0.000000 23.770350 19.990154 79.996246
 15 0 1  0.000000 25.337259 19.991783 80.007507
 16 0 1  0.000000 26.890751 19.986053 80.001175
 17 0 1  0.000000 28.411737 20.011692 79.979950
 18 0 1  0.000000 29.963181 19.988529 80.009888
 19 0 1  0.000000 31.490425 20.013439 79.985321
 20 0 1  0.000000 33.032993 20.013092 80.016739
 21 0 1  0.000000 34.563625 20.007587 80.015549
 22 0 1  0.000000 36.103516 20.004330 79.989578
 23 0 1  0.000000 37.652390 19.990906 79.987976
 24 0 1  0.000000 39.172997 20.006794 79.990646
 25 0 1  0.000000 40.709850 19.989082 80.019424
 26 0 1  0.000000 42.268974 20.005192 80.008148
 27 0 1  0.000000 43.806126 20.018974 79.996063
 28 0 1  0.000000 45.336609 20.016907 79.983978
 29 0 1  0.000000 46.889610 20.005890 80.000931
 30 0 1  0.000000 48.414600 19.994446 80.000671
 31 0 1  0.000000 49.972126 19.985538 79.980438
 32 0 1  0.000000 51.520901 19.989414 80.011826
 33 0 1  0.000000 53.044724 20.016670 80.013458
 34 0 1  0.000000 54.599674 19.997980 80.019180
 35 0 1  0.000000 56.125748 19.984837 79.981506
 36 0 1  0.000000 57.663784 20.001446 79.999115
 37 0 1  0.000000 59.189732 19.981972 79.981628
 38 0 1  0.000000 60.756378 20.018143 80.016159
 39 0 1  0.000000 62.301964 19.993771 79.998734
 40 0 1  0.000000 63.844166 20.005058 79.984467
 41 0 1  0.000000 65.356003 20.001549 79.998703
 42 0 1  0.000000 66.898041 19.992653 79.993515
 43 0 1  0.000000 68.432800 20.003345 79.979309
 44 0 1  0.000000 69.986008 20.003632 80.018143
 45 0 1  0.000000 71.509750 20.002956 79.998764
 46 0 1  0.000000 73.052155 19.991924 80.011353
 47 0 1  0.000000 74.625366 20.009541 80.005615
 48 0 1  0.000000 76.156555 19.979042 80.015289
 49 0 1  0.000000 77.670998 20.016094 80.016571
 50 0 1  0.000000 79.222557 19.987640 80.018219
 51 0 1  0.000000 80.774979 20.007568 80.010223
 52 0 1  0.000000 82.309456 20.007950 79.985626
 53 0 1  0.000000 83.867630 19.995438 79.988159
 54 0 1  0.000000 85.400803 20.000011 79.989395
 55 0 1  0.000000 86.945953 19.998291 80.020050
 56 0 1  0.000000 88.461075 20.016457 79.991547
 57 0 1  0.000000 90.024017 20.002968 79.987808
 58 0 1  0.000000 91.546516 19.985561 79.986984
 59 0 1  0.000000 93.091072 19.988354 80.004852
 60 0 1  0.000000 94.615326 19.988510 80.016479
 61 0 1  0.000000 96.160240 20.012894 80.007935
 62 0 1  0.000000 97.730583 19.987141 80.000656
 63 0 1  0.000000 99.252693 19.999199 80.017288
 64 0 1  0.000000 100.800217 19.991776 80.008118
 65 0 1  0.000000 102.321884 20.009178 79.983002
 66 0 1  0.000000 103.861336 20.007671 80.008820
 67 0 1  0.000000 105.399223 19.992855 80.017029
 68 0 1  0.000000 106.965050 19.990879 80.012054
 69 0 1  0.000000 108.507484 20.019474 79.986588
 70 0 1  0.000000 110.049553 20.017273 80.016586
 71 0 1  0.000000 111.574059 19.985744 80.010422
 72 0 1  0.000000 113.106537 19.982716 80.003662
 73 0 1  0.000000 114.642738 20.009487 79.984253
 74 0 1  0.000000 116.184937 20.013260 80.002716
 75 0 1  0.000000 117.730446 19.995434 80.017166
 76 0 1  0.000000 119.260513 19.984127 79.996216
 77 0 1  0.000000 120.814934 20.008846 80.008377
 78 0 1  0.000000 122.346886 19.981354 79.982651
 79 0 1  0.000000 123.873711 20.015129 79.997025
 80 0 1  0.000000 125.410713 20.004665 80.018051
 81 0 1  0.000000 126.957481 19.990353 80.010666
 82 0 1  0.000000 128.512009 20.009750 79.988007
 83 0 1  0.000000 130.067963 20.016678 80.010757
 84 0 1  0.000000 131.596619 20.017960 79.987671
 85 0 1  0.000000 133.117905 20.005554 79.997177
 86 0 1  0.000000 134.688431 19.999657 79.992981
 87 0 1  0.000000 136.193130 20.010307 80.007538
 88 0 1  0.000000 137.760910 19.992569 79.988190
 89 0 1  0.000000 139.305588 19.992771 79.994080
 90 0 1  0.000000 140.848633 19.993221 79.998810
 91 0 1  0.000000 142.372314 20.002235 79.986740
 92 0 1  0.000000 143.912262 19.998573 80.011139
 93 0 1  0.000000 145.458725 19.980679 80.002411
 94 0 1  0.000000 147.008560 19.996231 80.014206
 95 0 1  0.000000 148.531281 19.994553 80.020416
 96 0 1  0.000000 150.063995 20.012444 80.017868
 97 0 1  0.000000 151.630295 20.003170 80.017502
 98 0 1  0.000000 153.166077 20.008163 80.016113
 99 0 1  0.000000 154.685913 20.019821 80.008896
100 0 1  0.000000 156.235855 19.996059 79.997925
101 1 1  0.000000  3.789640 33.319195 79.994888
102 1 1  0.000000  5.321241 33.352970 80.018143
103 1 1  0.000000  6.842930 33.350437 80.002930
104 1 1  0.000000  8.402336 33.352642 79.980881
105 1 1  0.000000  9.916142 33.319721 80.013626
106 1 1  0.000000 11.488899 33.325611 80.003738
107 1 1  0.000000 13.026020 33.338177 80.007339
108 1 1  0.000000 14.536756 33.321255 80.003143
109 1 1  0.000000 16.091604 33.331997 79.982010
110 1 1  0.000000 17.615778 33.320560 79.996658
111 1 1  0.000000 19.177248 33.314228 79.994354
112 1 1  0.000000 20.727123 33.321095 80.019180
113 1 1  0.000000 22.262238 33.334370 80.009155
114 1 1  0.000000 23.798054 33.320026 79.980347
115 1 1  0.000000 25.321831 33.339973 80.020477
116 1 1  0.000000 26.877441 33.346104 79.995346
117 1 1  0.000000 28.403761 33.313992 79.998108
118 1 1  0.000000 29.958075 33.338009 80.011292
119 1 1  0.000000 31.471115 33.337978 80.013016
120 1 1  0.000000 33.040157 33.327869 80.019653
121 1 1  0.000000 34.567173 33.342350 80.011490
122 1 1  0.000000 36.109726 33.329967 80.002304
123 1 1  0.000000 37.646881 33.328709 80.005493
124 1 1  0.000000 39.208679 33.330006 80.007278
125 1 1  0.000000 40.749111 33.336910 80.010849
126 1 1  0.000000 42.254181 33.333118 79.989517
127 1 1  0.000000 43.820259 33.341053 80.008163
128 1 1  0.000000 45.330589 33.330433 80.004044
129 1 1  0.000000 46.890118 33.335384 80.009781
130 1 1  0.000000 48.409889 33.336246 80.001404
131 1 1  0.000000 49.988964 33.318272 80.012924
132 1 1  0.000000 51.524723 33.333187 79.993805
133 1 1  0.000000 53.054642 33.349499 80.015762
134 1 1  0.000000 54.580334 33.350712 79.996124
135 1 1  0.000000 56.128841 33.347912 79.997482
136 1 1  0.000000 57.668694 33.326069 80.011673
137 1 1  0.000000 59.217743 33.348797 79.988113
138 1 1  0.000000 60.745602 33.334293 79.985458
139 1 1  0.000000 62.278847 33.340611 80.009140
140 1 1  0.000000 63.831196 33.333172 79.981903
141 1 1  0.000000 65.379959 33.312763 79.991180
142 1 1  0.000000 66.904922 33.334660 79.980957
143 1 1  0.000000 68.433891 33.348019 79.988937
144 1 1  0.000000 69.973457 33.331188 80.019592
145 1 1  0.000000 71.511620 33.347393 80.008118
146 1 1  0.000000 73.079201 33.350903 79.981369
147 1 1  0.000000 74.590965 33.320324 79.995361
148 1 1  0.000000 76.143951 33.320911 80.009705
149 1 1  0.000000 77.681923 33.324940 79.996460
150 1 1  0.000000 79.237404 33.326946 80.005997
151 1 1  0.000000 80.772034 33.326336 80.015930
152 1 1  0.000000 82.319260 33.349308 79.979477
153 1 1  0.000000 83.856041 33.333668 80.003433
154 1 1  0.000000 85.402031 33.334461 80.018295
155 1 1  0.000000 86.939293 33.350887 80.003494
156 1 1  0.000000 88.469696 33.320118 79.979477
157 1 1  0.000000 89.999802 33.330814 80.001099
158 1 1  0.000000 91.565132 33.342434 79.979797
159 1 1  0.000000 93.102211 33.348217 80.006790
160 1 1  0.000000 94.646599 33.319515 79.998093
161 1 1  0.000000 96.186012 33.337200 79.982849
162 1 1  0.000000 97.706596 33.322102 79.996002
163 1 1  0.000000 99.241348 33.334919 79.980240
164 1 1  0.000000 100.777298 33.336781 80.012405
165 1 1  0.000000 102.328903 33.316441 79.996490
166 1 1  0.000000 103.886368 33.320904 79.979904
167 1 1  0.000000 105.407639 33.339771 80.007843
168 1 1  0.000000 106.930428 33.315624 80.010300
169 1 1  0.000000 108.476326 33.339039 80.017715
170 1 1  0.000000 110.024918 33.334385 80.017990
171 1 1  0.000000 111.578026 33.343380 80.007767
172 1 1  0.000000 113.121803 33.319241 80.007355
173 1 1  0.000000 114.638649 33.344845 79.996170
174 1 1  0.000000 116.194733 33.351208 79.992935
175 1 1  0.000000 117.747543 33.334881 79.998215
176 1 1  0.000000 119.271606 33.339817 80.012451
177 1 1  0.000000 120.819855 33.341854 79.980194
178 1 1  0.000000 122.369484 33.353527 80.019470
179 1 1  0.000000 123.888474 33.338223 80.019577
180 1 1  0.000000 125.411858 33.324802 79.992691
181 1 1  0.000000 126.989281 33.339375 80.017502
182 1 1  0.000000 128.495239 33.350651 80.010406
183 1 1  0.000000 130.059113 33.335300 79.981750
184 1 1  0.000000 131.581009 33.314510 79.997635
185 1 1  0.000000 133.150345 33.344357 79.979996
186 1 1  0.000000 134.682419 33.315388 80.006668
187 1 1  0.000000 136.213806 33.348637 79.989639
188 1 1  0.000000 137.732895 33.348301 80.009598
189 1 1  0.000000 139.279099 33.344181 80.017227
190 1 1  0.000000 140.840668 33.333340 79.993134
191 1 1  0.000000 142.353958 33.338825 79.988785
192 1 1  0.000000 143.897888 33.329853 80.011810
193 1 1  0.000000 145.462448 33.343220 79.990158
194 1 1  0.000000 147.001389 33.353245 79.980347
195 1 1  0.000000 148.545303 33.338810 80.003876
196 1 1  0.000000 150.065842 33.331760 79.998947
197 1 1  0.000000 151.630676 33.321323 80.019394
198 1 1  0.000000 153.147598 33.332325 79.988663
199 1 1  0.000000 154.694519 33.348339 80.011948
200 1 1  0.000000 156.240189 33.333187 79.990463
201 2 1  0.000000  3.760486 46.670315 79.979492
202 2 1  0.000000  5.327207 46.662640 80.000397
203 2 1  0.000000  6.842553 46.681507 80.010422
204 2 1  0.000000  8.373342 46.676952 80.006607
205 2 1  0.000000  9.941707 46.684444 80.006165
206 2 1  0.000000 11.475112 46.647114 80.004745
207 2 1  0.000000 13.003320 46.671474 79.992935
208 2 1  0.000000 14.553843 46.654987 79.985825
209 2 1  0.000000 16.080252 46.655201 79.981705
210 2 1  0.000000 17.612123 46.682690 79.984589
211 2 1  0.000000 19.157356 46.660191 80.004959
212 2 1  0.000000 20.693380 46.662846 79.983932
213 2 1  0.000000 22.244684 46.671078 79.979889
214 2 1  0.000000 23.788433 46.659550 79.991592
215 2 1  0.000000 25.315565 46.677479 80.013474
216 2 1  0.000000 26.858187 46.677807 79.984894
217 2 1  0.000000 28.413958 46.677395 80.011658
218 2 1  0.000000 29.941269 46.662884 79.983582
219 2 1  0.000000 31.490805 46.673687 79.988998
220 2 1  0.000000 33.017899 46.657063 79.998810
221 2 1  0.000000 34.576260 46.664028 80.002548
222 2 1  0.000000 36.098495 46.684231 79.992950
223 2 1  0.000000 37.635460 46.681164 79.979889
224 2 1  0.000000 39.174023 46.683880 79.986908
225 2 1  0.000000 40.710117 46.652225 79.996307
226 2 1  0.000000 42.252869 46.666950 79.999557
227 2 1  0.000000 43.800125 46.660648 79.986588
228 2 1  0.000000 45.337082 46.666622 79.992157
229 2 1  0.000000 46.906975 46.652317 79.998489
230 2 1  0.000000 48.435875 46.674191 80.000580
231 2 1  0.000000 49.989197 46.684994 80.005096
232 2 1  0.000000 51.490669 46.671551 80.008987
233 2 1  0.000000 53.045002 46.647419 79.983078
234 2 1  0.000000 54.599457 46.667889 80.018860
235 2 1  0.000000 56.111801 46.682575 79.996918
236 2 1  0.000000 57.658539 46.672733 79.983124
237 2 1  0.000000 59.190418 46.674252 79.993759
238 2 1  0.000000 60.765507 46.650486 80.014420
239 2 1  0.000000 62.283142 46.666111 79.983429
240 2 1  0.000000 63.821732 46.658787 80.015533
241 2 1  0.000000 65.383789 46.667835 80.004517
242 2 1  0.000000 66.918747 46.676907 80.014084
243 2 1  0.000000 68.459183 46.664547 80.017685
244 2 1  0.000000 69.980186 46.658955 80.010178
245 2 1  0.000000 71.513939 46.652317 79.982941
246 2 1  0.000000 73.086945 46.665249 79.983353
247 2 1  0.000000 74.617477 46.671856 79.999863
248 2 1  0.000000 76.151955 46.662319 80.005463
249 2 1  0.000000 77.689377 46.679783 79.985184
250 2 1  0.000000 79.232338 46.655590 80.013947
251 2 1  0.000000 80.776215 46.660618 80.012131
252 2 1  0.000000 82.293648 46.666996 80.005814
253 2 1  0.000000 83.837021 46.653179 79.985626
254 2 1  0.000000 85.407867 46.672886 79.995651
255 2 1  0.000000 86.941673 46.662502 79.992233
256 2 1  0.000000 88.490044 46.658482 80.012131
257 2 1  0.000000 90.005348 46.676655 79.982040
258 2 1  0.000000 91.540390 46.664722 79.983093
259 2 1  0.000000 93.088211 46.653835 79.991180
260 2 1  0.000000 94.650040 46.686604 79.979477
261 2 1  0.000000 96.175980 46.671810 80.017700
262 2 1  0.000000 97.703133 46.667820 80.002258
263 2 1  0.000000 99.264946 46.681637 80.004242
264 2 1  0.000000 100.799194 46.646847 79.981094
265 2 1  0.000000 102.313637 46.663136 79.984985
266 2 1  0.000000 103.863510 46.667507 79.994247
267 2 1  0.000000 105.391357 46.666698 79.988434
268 2 1  0.000000 106.958473 46.676510 79.983154
269 2 1  0.000000 108.491379 46.663197 80.012161
270 2 1  0.000000 110.039574 46.668041 80.019516
271 2 1  0.000000 111.590744 46.645588 80.011887
272 2 1  0.000000 113.104019 46.682598 80.005692
273 2 1  0.000000 114.668396 46.683010 79.991867
274 2 1  0.000000 116.209450 46.686817 79.982620
275 2 1  0.000000 117.735222 46.683056 80.013626
276 2 1  0.000000 119.253967 46.667889 79.996384
277 2 1  0.000000 120.805435 46.660419 80.013870
278 2 1  0.000000 122.353966 46.681934 79.985580
279 2 1  0.000000 123.902931 46.656803 80.015656
280 2 1  0.000000 125.436653 46.656925 80.001450
281 2 1  0.000000 126.968597 46.668705 79.982269
282 2 1  0.000000 128.494019 46.663288 80.011353
283 2 1  0.000000 130.047867 46.668293 80.008240
284 2 1  0.000000 131.587921 46.651264 80.004272
285 2 1  0.000000 133.140579 46.651928 79.990128
286 2 1  0.000000 134.653854 46.646717 79.983459
287 2 1  0.000000 136.202103 46.677952 80.010147
288 2 1  0.000000 137.735199 46.677876 80.007385
289 2 1  0.000000 139.273239 46.650478 79.988708
290 2 1  0.000000 140.818619 46.685452 79.984497
291 2 1  0.000000 142.381714 46.666576 79.991409
292 2 1  0.000000 143.926514 46.652805 79.986725
293 2 1  0.000000 145.458084 46.669720 80.018494
294 2 1  0.000000 147.010361 46.658215 80.015686
295 2 1  0.000000 148.542786 46.662075 80.002197
296 2 1  0.000000 150.086365 46.658329 79.996796
297 2 1  0.000000 151.602646 46.672344 80.011948
298 2 1  0.000000 153.145660 46.662243 80.016907
299 2 1  0.000000 154.704300 46.655666 79.997238
300 2 1  0.000000 156.225830 46.659527 80.005524
301 3 1  0.000000  3.769745 60.015846 80.004913
302 3 1  0.000000  5.321027 59.980972 80.019012
303 3 1  0.000000  6.841855 59.985260 80.020126
304 3 1  0.000000  8.384588 60.017563 79.981628
305 3 1  0.000000  9.910164 59.984909 80.013382
306 3 1  0.000000 11.486546 60.013428 79.988480
307 3 1  0.000000 13.014756 60.003418 79.997238
308 3 1  0.000000 14.570716 60.015152 80.019409
309 3 1  0.000000 16.100643 60.015533 79.998398
310 3 1  0.000000 17.642897 60.006332 80.016327
311 3 1  0.000000 19.163374 60.001396 80.017838
312 3 1  0.000000 20.707396 59.998955 80.007492
313 3 1  0.000000 22.254791 60.002579 80.014923
314 3 1  0.000000 23.794790 60.003670 80.000229
315 3 1  0.000000 25.324907 59.997635 80.011841
316 3 1  0.000000 26.867977 60.007217 79.988586
317 3 1  0.000000 28.413755 60.013580 79.982330
318 3 1  0.000000 29.945621 59.985611 80.012192
319 3 1  0.000000 31.478048 59.981796 80.011368
320 3 1  0.000000 33.014362 59.984695 79.994278
321 3 1  0.000000 34.563259 60.014931 80.019226
322 3 1  0.000000 36.118706 59.999252 79.984818
323 3 1  0.000000 37.669247 59.997299 80.017990
324 3 1  0.000000 39.186756 59.993698 80.014679
325 3 1  0.000000 40.729969 59.996666 80.017975
326 3 1  0.000000 42.272968 59.983337 80.018753
327 3 1  0.000000 43.809914 59.987328 80.012039
328 3 1  0.000000 45.337307 60.000580 79.985397
329 3 1  0.000000 46.880360 60.002930 79.993759
330 3 1  0.000000 48.437878 59.990005 80.014374
331 3 1  0.000000 49.956226 59.990791 79.981293
332 3 1  0.000000 51.513672 60.012817 80.002197
333 3 1  0.000000 53.034046 59.995918 80.001572
334 3 1  0.000000 54.606934 60.014534 79.989243
335 3 1  0.000000 56.145481 59.995193 79.980743
336 3 1  0.000000 57.685421 60.003052 79.981247
337 3 1  0.000000 59.216377 59.993149 79.999664
338 3 1  0.000000 60.745632 60.014984 80.014404
339 3 1  0.000000 62.305126 60.008850 80.014313
340 3 1  0.000000 63.824192 59.984467 79.993179
341 3 1  0.000000 65.387344 59.988976 79.993652
342 3 1  0.000000 66.920395 60.016968 79.994583
343 3 1  0.000000 68.448273 59.992676 79.984497
344 3 1  0.000000 69.991310 59.987434 79.990265
345 3 1  0.000000 71.531960 60.010582 79.996353
346 3 1  0.000000 73.053909 60.013763 80.002533
347 3 1  0.000000 74.602272 59.998283 80.000595
348 3 1  0.000000 76.164673 60.011833 80.000595
349 3 1  0.000000 77.707176 59.990814 79.991608
350 3 1  0.000000 79.220001 60.010353 79.979416
351 3 1  0.000000 80.755974 59.994507 79.986938
352 3 1  0.000000 82.292953 60.019257 79.987793
353 3 1  0.000000 83.832108 60.019943 79.991699
354 3 1  0.000000 85.410278 59.999283 79.999710
355 3 1  0.000000 86.947571 60.005219 80.013504
356 3 1  0.000000 88.457481 59.996490 80.009155
357 3 1  0.000000 89.990746 59.996674 79.996918
358 3 1  0.000000 91.570175 59.979050 80.014221
359 3 1  0.000000 93.085632 60.019287 80.018661
360 3 1  0.000000 94.639351 59.995033 80.005096
361 3 1  0.000000 96.173752 60.018440 80.012497
362 3 1  0.000000 97.706841 60.004761 80.019928
363 3 1  0.000000 99.250595 59.999817 79.998001
364 3 1  0.000000 100.798531 60.011490 79.979263
365 3 1  0.000000 102.344772 60.008026 79.999115
366 3 1  0.000000 103.853027 59.995277 80.008865
367 3 1  0.000000 105.406898 59.984993 79.999069
368 3 1  0.000000 106.940132 59.995911 80.005142
369 3 1  0.000000 108.504295 59.983994 80.017532
370 3 1  0.000000 110.041000 60.008987 79.998108
371 3 1  0.000000 111.585373 60.009789 80.004608
372 3 1  0.000000 113.111870 60.007156 79.992737
373 3 1  0.000000 114.667084 59.995491 79.998596
374 3 1  0.000000 116.174934 59.997139 79.986313
375 3 1  0.000000 117.713737 60.000885 79.987320
376 3 1  0.000000 119.258636 60.018372 80.003677
377 3 1  0.000000 120.792297 60.002190 80.017776
378 3 1  0.000000 122.359848 60.014297 80.010956
379 3 1  0.000000 123.900917 59.993584 80.017776
380 3 1  0.000000 125.434364 59.994232 80.012589
381 3 1  0.000000 126.972351 59.987793 80.003906
382 3 1  0.000000 128.527069 60.004333 79.991776
383 3 1  0.000000 130.029938 60.007698 80.010696
384 3 1  0.000000 131.593796 60.012497 80.008179
385 3 1  0.000000 133.109909 59.990685 79.994659
386 3 1  0.000000 134.690430 60.002769 79.988098
387 3 1  0.000000 136.201965 59.989021 80.008774
388 3 1  0.000000 137.751221 60.003311 79.996567
389 3 1  0.000000 139.309464 60.015053 80.005447
390 3 1  0.000000 140.832748 59.993423 80.010132
391 3 1  0.000000 142.387650 59.981888 80.016586
392 3 1  0.000000 143.899414 60.003807 79.983902
393 3 1  0.000000 145.442612 59.992722 80.011856
394 3 1  0.000000 146.996780 59.992798 80.016479
395 3 1  0.000000 148.540314 59.979202 80.008865
396 3 1  0.000000 150.075516 60.004768 80.013306
397 3 1  0.000000 151.623947 59.993156 79.981323
398 3 1  0.000000 153.152924 60.013260 80.014771
399 3 1  0.000000 154.691010 60.020096 79.980804
400 3 1  0.000000 156.221725 60.017639 79.985382
401 4 1  0.000000  3.752596 73.334953 79.983429
402 4 1  0.000000  5.305792 73.346016 79.993225
403 4 1  0.000000  6.855561 73.337639 79.982803
404 4 1  0.000000  8.389918 73.340569 79.982330
405 4 1  0.000000  9.949779 73.322578 79.979523
406 4 1  0.000000 11.469496 73.326942 79.993729
407 4 1  0.000000 13.003592 73.341881 80.003357
408 4 1  0.000000 14.554667 73.314186 80.012466
409 4 1  0.000000 16.092916 73.333611 80.015961
410 4 1  0.000000 17.629559 73.327797 79.996628
411 4 1  0.000000 19.189581 73.339058 80.006775
412 4 1  0.000000 20.723410 73.336189 79.998932
413 4 1  0.000000 22.238016 73.313972 80.015594
414 4 1  0.000000 23.809162 73.341820 79.993820
415 4 1  0.000000 25.314301 73.317726 80.017914
416 4 1  0.000000 26.850542 73.343346 79.993805
417 4 1  0.000000 28.408409 73.330956 80.019119
418 4 1  0.000000 29.939159 73.326195 80.009857
419 4 1  0.000000 31.483931 73.352699 79.980667
420 4 1  0.000000 33.016994 73.351204 80.011292
421 4 1  0.000000 34.555553 73.339073 79.997513
422 4 1  0.000000 36.107521 73.336662 79.983994
423 4 1  0.000000 37.661865 73.315285 80.018021
424 4 1  0.000000 39.176693 73.340767 79.995270
425 4 1  0.000000 40.744320 73.331200 79.994781
426 4 1  0.000000 42.283623 73.332939 80.012085
427 4 1  0.000000 43.812202 73.315742 80.001877
428 4 1  0.000000 45.344315 73.338448 79.995895
429 4 1  0.000000 46.875870 73.323067 80.017731
430 4 1  0.000000 48.409618 73.312706 80.003571
431 4 1  0.000000 49.981205 73.339302 80.009735
432 4 1  0.000000 51.519466 73.314751 80.009354
433 4 1  0.000000 53.051655 73.351006 79.985596
434 4 1  0.000000 54.605373 73.343910 79.979538
435 4 1  0.000000 56.135979 73.332695 80.005371
436 4 1  0.000000 57.677074 73.315468 79.989883
437 4 1  0.000000 59.198719 73.322609 79.986572
438 4 1  0.000000 60.756069 73.326057 79.997696
439 4 1  0.000000 62.274559 73.340477 79.998550
440 4 1  0.000000 63.834927 73.314690 79.979279
441 4 1  0.000000 65.353142 73.316612 79.985764
442 4 1  0.000000 66.912598 73.352791 79.980316
443 4 1  0.000000 68.467216 73.327736 79.984131
444 4 1  0.000000 69.987663 73.335274 80.018768
445 4 1  0.000000 71.521271 73.317574 79.999405
446 4 1  0.000000 73.053856 73.338585 79.986404
447 4 1  0.000000 74.621567 73.329826 80.016937
448 4 1  0.000000 76.143173 73.351921 79.981934
449 4 1  0.000000 77.682907 73.324974 80.009232
450 4 1  0.000000 79.225349 73.319420 80.002670
451 4 1  0.000000 80.780121 73.337776 79.979584
452 4 1  0.000000 82.310432 73.340034 80.018036
453 4 1  0.000000 83.864891 73.327644 80.017227
454 4 1  0.000000 85.402740 73.314323 79.981613
455 4 1  0.000000 86.940140 73.329399 79.982803
456 4 1  0.000000 88.463676 73.326363 79.986954
457 4 1  0.000000 90.019836 73.314720 80.014374
458 4 1  0.000000 91.544319 73.322227 80.000504
459 4 1  0.000000 93.083344 73.317726 79.983948
460 4 1  0.000000 94.618103 73.342216 80.003174
461 4 1  0.000000 96.182373 73.316063 79.990936
462 4 1  0.000000 97.696838 73.341484 79.985260
463 4 1  0.000000 99.247833 73.332497 80.014023
464 4 1  0.000000 100.801155 73.333580 79.989456
465 4 1  0.000000 102.344910 73.326607 80.016251
466 4 1  0.000000 103.875122 73.329109 80.016144
467 4 1  0.000000 105.401711 73.331978 80.006454
468 4 1  0.000000 106.944855 73.314842 79.994781
469 4 1  0.000000 108.492989 73.346703 80.002869
470 4 1  0.000000 110.040611 73.345695 80.007919
471 4 1  0.000000 111.553596 73.317116 79.998444
472 4 1  0.000000 113.110062 73.316307 79.989792
473 4 1  0.000000 114.637894 73.327187 80.011368
474 4 1  0.000000 116.187859 73.340202 79.990738
475 4 1  0.000000 117.713821 73.329002 80.011261
476 4 1  0.000000 119.277573 73.313759 80.018463
477 4 1  0.000000 120.802727 73.334709 79.989166
478 4 1  0.000000 122.345642 73.321907 79.979340
479 4 1  0.000000 123.879181 73.340950 79.998520
480 4 1  0.000000 125.422531 73.351768 80.007645
481 4 1  0.000000 126.985199 73.318962 79.993858
482 4 1  0.000000 128.497192 73.348198 79.979797
483 4 1  0.000000 130.054733 73.340370 79.981155
484 4 1  0.000000 131.581528 73.349342 80.011795
485 4 1  0.000000 133.145279 73.317375 80.000336
486 4 1  0.000000 134.666977 73.319023 79.982651
487 4 1  0.000000 136.191208 73.343620 79.979752
488 4 1  0.000000 137.736481 73.323128 80.004028
489 4 1  0.000000 139.270294 73.342537 80.009155
490 4 1  0.000000 140.828873 73.341438 79.993011
491 4 1  0.000000 142.372467 73.336617 79.995804
492 4 1  0.000000 143.896317 73.344658 79.985168
493 4 1  0.000000 145.438980 73.337013 79.992615
494 4 1  0.000000 146.985977 73.350639 79.979645
495 4 1  0.000000 148.541550 73.322853 80.003555
496 4 1  0.000000 150.072083 73.333824 79.989548
497 4 1  0.000000 151.628174 73.313576 79.996155
498 4 1  0.000000 153.146423 73.326439 80.001434
499 4 1  0.000000 154.674881 73.350426 80.005447
500 4 1  0.000000 156.245712 73.344673 79.984833
501 5 1  0.000000  3.772061 86.655876 79.995148
502 5 1  0.000000  5.293501 86.658852 80.010086
503 5 1  0.000000  6.842649 86.678719 80.015915
504 5 1  0.000000  8.389838 86.676826 79.986786
505 5 1  0.000000  9.948467 86.650871 79.996140
506 5 1  0.000000 11.456208 86.677589 79.980545
507 5 1  0.000000 12.990404 86.677025 80.005203
508 5 1  0.000000 14.551483 86.651009 80.002121
509 5 1  0.000000 16.103582 86.683998 80.002487
510 5 1  0.000000 17.628036 86.673027 79.988800
511 5 1  0.000000 19.184130 86.650032 79.981201
512 5 1  0.000000 20.698587 86.679848 79.997650
513 5 1  0.000000 22.259525 86.648598 79.990219
514 5 1  0.000000 23.808693 86.658241 79.984879
515 5 1  0.000000 25.323278 86.685570 79.979431
516 5 1  0.000000 26.850574 86.665840 79.983200
517 5 1  0.000000 28.394184 86.652275 80.005219
518 5 1  0.000000 29.962505 86.667763 80.018372
519 5 1  0.000000 31.480417 86.668236 79.996750
520 5 1  0.000000 33.023663 86.654472 80.012558
521 5 1  0.000000 34.580055 86.680031 80.000916
522 5 1  0.000000 36.116280 86.656059 80.013046
523 5 1  0.000000 37.655922 86.646843 80.004410
524 5 1  0.000000 39.195515 86.663139 79.979904
525 5 1  0.000000 40.735855 86.682137 79.991943
526 5 1  0.000000 42.266605 86.671227 79.986832
527 5 1  0.000000 43.795376 86.665810 79.991348
528 5 1  0.000000 45.352356 86.648170 80.001678
529 5 1  0.000000 46.883568 86.646919 80.005051
530 5 1  0.000000 48.412548 86.652809 79.985382
531 5 1  0.000000 49.955872 86.651558 79.988571
532 5 1  0.000000 51.523815 86.648415 79.995895
533 5 1  0.000000 53.037052 86.677071 80.001678
534 5 1  0.000000 54.583595 86.658653 79.981354
535 5 1  0.000000 56.127411 86.669838 79.988190
536 5 1  0.000000 57.656151 86.676537 80.017853
537 5 1  0.000000 59.212936 86.667397 80.018234
538 5 1  0.000000 60.750923 86.649986 79.988281
539 5 1  0.000000 62.290100 86.650536 80.005768
540 5 1  0.000000 63.828545 86.679863 79.998566
541 5 1  0.000000 65.369682 86.660088 80.018997
542 5 1  0.000000 66.900681 86.680275 80.017426
543 5 1  0.000000 68.433334 86.679146 80.005585
544 5 1  0.000000 70.006264 86.656578 79.983887
545 5 1  0.000000 71.532257 86.683296 80.006821
546 5 1  0.000000 73.054474 86.678719 79.995163
547 5 1  0.000000 74.595482 86.675362 79.981979
548 5 1  0.000000 76.157394 86.653114 79.981445
549 5 1  0.000000 77.678978 86.673500 79.988052
550 5 1  0.000000 79.215401 86.658607 80.005432
551 5 1  0.000000 80.754829 86.673027 80.007111
552 5 1  0.000000 82.299850 86.657845 80.019806
553 5 1  0.000000 83.847923 86.673897 80.005753
554 5 1  0.000000 85.400375 86.646431 79.995712
555 5 1  0.000000 86.915459 86.677437 79.992081
556 5 1  0.000000 88.460823 86.671822 80.005035
557 5 1  0.000000 90.017906 86.679802 79.997620
558 5 1  0.000000 91.534081 86.674217 80.010590
559 5 1  0.000000 93.076881 86.663383 79.996216
560 5 1  0.000000 94.646851 86.677849 79.990463
561 5 1  0.000000 96.182419 86.682457 80.015121
562 5 1  0.000000 97.708771 86.662758 80.013367
563 5 1  0.000000 99.248291 86.646049 79.996674
564 5 1  0.000000 100.809090 86.670708 79.991638
565 5 1  0.000000 102.325577 86.657326 80.008591
566 5 1  0.000000 103.886993 86.649361 80.015533
567 5 1  0.000000 105.410233 86.678520 79.999557
568 5 1  0.000000 106.946251 86.675148 79.989487
569 5 1  0.000000 108.471191 86.651558 80.011093
570 5 1  0.000000 110.016472 86.677849 79.981583
571 5 1  0.000000 111.550072 86.655968 80.012527
572 5 1  0.000000 113.104431 86.678474 79.991493
573 5 1  0.000000 114.649330 86.679283 80.015732
574 5 1  0.000000 116.204170 86.661491 79.986328
575 5 1  0.000000 117.730949 86.650627 80.019836
576 5 1  0.000000 119.287720 86.683510 79.995544
577 5 1  0.000000 120.813881 86.668358 80.008698
578 5 1  0.000000 122.358612 86.674522 79.993027
579 5 1  0.000000 123.885002 86.677498 79.987076
580 5 1  0.000000 125.450737 86.676537 79.999100
581 5 1  0.000000 126.964203 86.650032 80.013626
582 5 1  0.000000 128.529480 86.675438 80.002213
583 5 1  0.000000 130.032776 86.646431 80.012070
584 5 1  0.000000 131.584534 86.686043 80.017807
585 5 1  0.000000 133.146988 86.655479 79.986877
586 5 1  0.000000 134.655121 86.650902 80.001495
587 5 1  0.000000 136.218582 86.671898 79.998215
588 5 1  0.000000 137.752686 86.679802 80.018250
589 5 1  0.000000 139.298355 86.675621 80.007294
590 5 1  0.000000 140.844971 86.655540 79.981628
591 5 1  0.000000 142.356888 86.664665 79.998489
592 5 1  0.000000 143.928894 86.673042 79.989731
593 5 1  0.000000 145.462082 86.652626 80.003555
594 5 1  0.000000 147.004669 86.652061 80.017151
595 5 1  0.000000 148.527908 86.684685 80.019241
596 5 1  0.000000 150.087723 86.667488 80.002945
597 5 1  0.000000 151.598907 86.675438 80.003067
598 5 1  0.000000 153.159012 86.667229 79.986725
599 5 1  0.000000 154.672440 86.675285 80.007050
600 5 1  0.000000 156.231750 86.675240 80.012375
601 6 1  0.000000  3.763043 100.009506 79.981140
602 6 1  0.000000  5.293898 100.016663 79.992020
603 6 1  0.000000  6.854804 99.979462 79.980438
604 6 1  0.000000  8.409785 100.000473 80.001541
605 6 1  0.000000  9.939836 99.986221 79.985870
606 6 1  0.000000 11.469300 100.001892 80.010040
607 6 1  0.000000 13.029912 100.007965 79.989197
608 6 1  0.000000 14.537705 99.999512 80.018829
609 6 1  0.000000 16.106907 99.989319 79.996140
610 6 1  0.000000 17.613993 100.013443 79.980789
611 6 1  0.000000 19.176521 100.015488 79.982742
612 6 1  0.000000 20.708012 99.991776 80.018631
613 6 1  0.000000 22.253210 99.984024 79.994263
614 6 1  0.000000 23.789515 100.001144 80.017075