Created with TaichiMD

1000 atoms
990 bonds
  0 angles
  0 dihedrals
  0 impropers

1 atom types
1 bond types
0 angle types
0 dihedral types
0 improper types

-80.00000  80.00000 xlo xhi
-80.00000  80.00000 ylo yhi
-80.00000  80.00000 zlo zhi

Masses

1 10.0000

Atoms

  1 0 1  0.000000 54.754925 13.863265 84.238091
  2 0 1  0.000000 54.143692 15.115472 84.149162
  3 0 1  0.000000 53.426632 14.578457 82.976860
  4 0 1  0.000000 54.887123 14.281056 82.102676
  5 0 1  0.000000 55.308937 14.991594 80.826073
  6 0 1  0.000000 55.426666 15.638245 79.330048
  7 0 1  0.000000 55.121990 17.654760 79.418228
  8 0 1  0.000000 53.842381 18.682720 80.142349
  9 0 1  0.000000 53.971577 18.306934 81.042801
 10 0 1  0.000000 54.876209 18.940922 82.109810
 11 0 1  0.000000 56.401924 19.161552 82.465195
 12 0 1  0.000000 56.832485 20.226656 82.821449
 13 0 1  0.000000 57.195114 18.433523 82.523552
 14 0 1  0.000000 58.617252 17.661936 82.422821
 15 0 1  0.000000 59.806648 18.375385 83.636642
 16 0 1  0.000000 61.314735 19.552340 84.501007
 17 0 1  0.000000 61.648911 21.411732 84.487511
 18 0 1  0.000000 62.670021 20.560616 84.133186
 19 0 1  0.000000 62.572453 20.900743 83.006111
 20 0 1  0.000000 63.459393 21.372187 81.732819
 21 0 1  0.000000 64.650826 20.510624 81.000290
 22 0 1  0.000000 63.618893 21.155487 80.089371
 23 0 1  0.000000 63.726364 20.327024 78.951241
 24 0 1  0.000000 62.834206 21.238306 77.280029
 25 0 1  0.000000 62.155792 19.456650 77.250488
 26 0 1  0.000000 63.746742 17.656275 77.169655
 27 0 1  0.000000 64.562752 16.080215 77.711411
 28 0 1  0.000000 65.099091 14.555710 77.817619
 29 0 1  0.000000 64.039543 13.041291 78.308731
 30 0 1  0.000000 64.310181 12.154511 76.363144
 31 0 1  0.000000 63.756065 11.138114 75.594826
 32 0 1  0.000000 65.158859 10.397963 76.116440
 33 0 1  0.000000 65.703133 11.396148 75.717102
 34 0 1  0.000000 66.864418 10.174798 76.749001
 35 0 1  0.000000 68.113670 11.359939 77.788757
 36 0 1  0.000000 68.696930 11.555020 79.027191
 37 0 1  0.000000 69.851738 10.748479 79.360718
 38 0 1  0.000000 71.438660 11.483216 79.623993
 39 0 1  0.000000 72.335251 12.114046 80.593430
 40 0 1  0.000000 71.527039 13.376111 79.275940
 41 0 1  0.000000 72.379593 14.564965 80.835167
 42 0 1  0.000000 72.005531 15.988851 80.466385
 43 0 1  0.000000 70.872658 16.528378 81.033051
 44 0 1  0.000000 69.505913 17.201679 81.929672
 45 0 1  0.000000 68.577423 18.232897 83.001503
 46 0 1  0.000000 69.563889 19.456495 82.869049
 47 0 1  0.000000 70.606483 19.671886 85.133018
 48 0 1  0.000000 70.310730 21.119104 85.534241
 49 0 1  0.000000 72.033318 21.140177 84.584167
 50 0 1  0.000000 72.713768 19.397125 84.871826
 51 0 1  0.000000 73.920067 18.154547 83.911354
 52 0 1  0.000000 74.317902 19.069920 82.380157
 53 0 1  0.000000 75.038391 18.735703 80.977928
 54 0 1  0.000000 74.404526 20.182198 80.192459
 55 0 1  0.000000 73.115318 20.125921 78.649971
 56 0 1  0.000000 74.287743 20.106037 78.016891
 57 0 1  0.000000 75.392776 19.647804 77.236725
 58 0 1  0.000000 76.950333 20.353813 77.066872
 59 0 1  0.000000 77.261147 18.984453 77.779327
 60 0 1  0.000000 77.004448 17.900225 78.916206
 61 0 1  0.000000 78.709045 17.300413 79.565460
 62 0 1  0.000000 79.781578 17.074600 80.206039
 63 0 1  0.000000 80.382401 15.457592 80.139496
 64 0 1  0.000000 80.882133 14.288961 79.929573
 65 0 1  0.000000 82.020515 15.190326 79.202408
 66 0 1  0.000000 82.747475 15.801995 77.641777
 67 0 1  0.000000 82.319908 15.501591 76.368599
 68 0 1  0.000000 82.380531 16.483284 75.143341
 69 0 1  0.000000 81.399216 17.439198 75.654938
 70 0 1  0.000000 81.920349 18.691984 74.177628
 71 0 1  0.000000 80.849632 19.883400 74.874687
 72 0 1  0.000000 82.266525 20.962294 75.493614
 73 0 1  0.000000 81.937592 21.327948 77.081551
 74 0 1  0.000000 81.465317 21.422117 75.667336
 75 0 1  0.000000 82.143555 22.826509 74.928322
 76 0 1  0.000000 81.886848 24.442955 74.421585
 77 0 1  0.000000 83.052284 25.659727 73.558174
 78 0 1  0.000000 81.792473 26.687408 72.826569
 79 0 1  0.000000 82.928444 26.166296 74.498993
 80 0 1  0.000000 83.763870 27.263212 75.584976
 81 0 1  0.000000 85.212540 27.678131 75.314270
 82 0 1  0.000000 86.323128 27.197327 74.305435
 83 0 1  0.000000 85.899971 28.796843 74.437340
 84 0 1  0.000000 87.166870 28.820311 73.744553
 85 0 1  0.000000 86.536995 30.153318 72.785233
 86 0 1  0.000000 84.973457 30.914148 73.087715
 87 0 1  0.000000 86.004890 31.175217 71.792732
 88 0 1  0.000000 86.151527 31.096764 70.413910
 89 0 1  0.000000 85.177475 30.750250 69.073051
 90 0 1  0.000000 85.994804 31.999100 67.773033
 91 0 1  0.000000 86.984978 32.862583 67.335732
 92 0 1  0.000000 87.681908 33.483688 66.723625
 93 0 1  0.000000 88.761612 34.167774 67.820518
 94 0 1  0.000000 89.014450 35.619877 67.045593
 95 0 1  0.000000 88.603127 36.598522 66.408852
 96 0 1  0.000000 88.472054 37.459797 64.819992
 97 0 1  0.000000 87.503204 38.099636 65.900215
 98 0 1  0.000000 88.406654 39.123569 66.459480
 99 0 1  0.000000 88.154236 40.687012 66.527382
100 0 1  0.000000 88.465706 42.394020 66.989990
101 1 1  0.000000 59.171062 40.849926 67.935532
102 1 1  0.000000 60.097549 39.976269 69.737961
103 1 1  0.000000 60.395676 39.513367 71.225861
104 1 1  0.000000 59.501904 39.046993 70.216644
105 1 1  0.000000 59.461868 37.318989 70.587570
106 1 1  0.000000 59.094959 35.811104 70.057426
107 1 1  0.000000 59.050785 35.548981 68.676643
108 1 1  0.000000 59.038597 35.399685 67.187187
109 1 1  0.000000 59.365047 34.230743 68.268066
110 1 1  0.000000 58.652763 32.945194 68.063484
111 1 1  0.000000 59.325455 31.561779 68.007309
112 1 1  0.000000 61.053013 30.830301 68.511742
113 1 1  0.000000 60.030968 30.233276 66.989708
114 1 1  0.000000 61.107666 29.533688 66.091667
115 1 1  0.000000 61.654465 28.671732 66.762009
116 1 1  0.000000 62.911625 29.668488 66.138908
117 1 1  0.000000 64.213264 28.728039 66.820343
118 1 1  0.000000 64.529587 28.504889 68.621101
119 1 1  0.000000 64.565773 28.881266 70.005768
120 1 1  0.000000 65.549431 29.264181 71.199188
121 1 1  0.000000 67.031052 28.674118 71.425636
122 1 1  0.000000 66.150696 27.288565 71.327560
123 1 1  0.000000 67.365959 26.985876 72.827454
124 1 1  0.000000 68.233192 28.177761 73.861694
125 1 1  0.000000 67.655708 28.398487 75.444481
126 1 1  0.000000 67.432312 26.976234 75.148392
127 1 1  0.000000 68.517197 26.802511 76.113358
128 1 1  0.000000 70.034325 26.721210 76.166168
129 1 1  0.000000 71.358322 27.094404 76.688736
130 1 1  0.000000 72.662682 27.017048 75.839981
131 1 1  0.000000 73.818405 27.690300 76.817581
132 1 1  0.000000 74.556839 26.753849 77.626877
133 1 1  0.000000 75.965149 25.496742 77.706177
134 1 1  0.000000 74.723511 25.940554 78.836548
135 1 1  0.000000 75.033058 24.716137 79.195129
136 1 1  0.000000 74.736420 24.500135 80.596832
137 1 1  0.000000 75.813080 25.323668 81.549706
138 1 1  0.000000 76.498299 24.395378 83.069214
139 1 1  0.000000 76.973518 24.828173 84.601692
140 1 1  0.000000 77.356796 26.504028 83.857376
141 1 1  0.000000 78.255074 27.286821 82.096703
142 1 1  0.000000 79.515671 25.743717 82.742104
143 1 1  0.000000 80.461624 24.870058 82.386421
144 1 1  0.000000 80.952522 24.346098 81.034279
145 1 1  0.000000 80.797211 24.473242 79.677010
146 1 1  0.000000 80.115746 26.480761 79.115242
147 1 1  0.000000 79.978996 28.104330 78.798012
148 1 1  0.000000 81.171745 28.886744 78.759659
149 1 1  0.000000 79.950134 30.105148 78.715050
150 1 1  0.000000 80.975868 30.077097 79.447166
151 1 1  0.000000 82.650093 30.751240 79.315781
152 1 1  0.000000 83.913429 31.498907 79.672981
153 1 1  0.000000 83.307625 30.850542 80.693138
154 1 1  0.000000 83.097710 29.870750 82.428535
155 1 1  0.000000 82.709290 29.065426 84.342094
156 1 1  0.000000 82.748642 28.496414 85.639977
157 1 1  0.000000 84.410812 28.193106 86.156296
158 1 1  0.000000 86.093239 28.040195 86.108826
159 1 1  0.000000 85.264305 27.592184 85.084412
160 1 1  0.000000 85.340263 26.557741 83.915367
161 1 1  0.000000 84.613937 26.850349 82.334282
162 1 1  0.000000 85.633141 26.094948 82.112045
163 1 1  0.000000 86.715515 27.186371 81.195366
164 1 1  0.000000 87.978470 27.753950 81.384796
165 1 1  0.000000 88.875725 28.784126 81.270226
166 1 1  0.000000 89.942780 29.192566 82.298485
167 1 1  0.000000 91.327728 28.621181 83.806824
168 1 1  0.000000 89.099442 28.444853 84.858536
169 1 1  0.000000 89.584114 26.954987 84.003426
170 1 1  0.000000 89.563469 26.646118 85.509995
171 1 1  0.000000 90.774605 26.403687 86.505486
172 1 1  0.000000 90.757439 25.328766 87.832664
173 1 1  0.000000 92.249268 24.746809 87.520248
174 1 1  0.000000 93.362892 23.707623 88.544228
175 1 1  0.000000 93.032280 24.304495 90.151260
176 1 1  0.000000 92.511658 23.763594 91.639801
177 1 1  0.000000 92.824425 23.840946 92.811562
178 1 1  0.000000 93.188736 23.891012 94.229874
179 1 1  0.000000 92.909294 23.682442 95.766724
180 1 1  0.000000 94.489441 23.806843 95.641045
181 1 1  0.000000 93.679970 22.773928 95.909966
182 1 1  0.000000 94.033646 21.590273 96.280502
183 1 1  0.000000 95.374046 20.929472 96.651520
184 1 1  0.000000 96.271545 21.432154 97.875343
185 1 1  0.000000 97.665665 21.868246 98.568359
186 1 1  0.000000 97.545143 22.278135 99.907578
187 1 1  0.000000 97.487579 21.524914 100.971748
188 1 1  0.000000 98.541862 22.162685 102.055473
189 1 1  0.000000 98.891670 24.140018 102.467255
190 1 1  0.000000 99.815659 22.368256 102.622169
191 1 1  0.000000 100.536522 22.873091 101.221420
192 1 1  0.000000 101.766983 23.356363 101.949371
193 1 1  0.000000 103.849693 22.914143 101.817802
194 1 1  0.000000 103.608116 22.900846 100.552292
195 1 1  0.000000 103.876740 21.117887 99.748192
196 1 1  0.000000 104.811172 21.790524 101.279762
197 1 1  0.000000 106.155510 20.963133 100.572464
198 1 1  0.000000 106.856453 19.710091 100.603745
199 1 1  0.000000 108.043648 20.147131 101.675438
200 1 1  0.000000 107.746284 19.272055 102.753265
201 2 1  0.000000 48.151928 57.038395 74.229225
202 2 1  0.000000 47.197468 55.642456 74.219093
203 2 1  0.000000 48.308880 55.350521 72.988251
204 2 1  0.000000 49.036892 54.369545 72.848610
205 2 1  0.000000 48.625843 52.778355 72.512909
206 2 1  0.000000 50.082001 52.107853 72.622169
207 2 1  0.000000 51.059975 50.320454 73.150497
208 2 1  0.000000 51.929905 51.811180 73.718742
209 2 1  0.000000 53.021564 51.628101 72.482521
210 2 1  0.000000 54.686348 51.166351 71.897476
211 2 1  0.000000 55.101078 49.826050 72.415428
212 2 1  0.000000 53.762928 49.052261 72.117027
213 2 1  0.000000 55.482807 48.708897 72.494415
214 2 1  0.000000 55.938305 47.451691 73.426613
215 2 1  0.000000 57.081753 47.400112 75.049225
216 2 1  0.000000 57.015865 48.558399 76.276077
217 2 1  0.000000 57.598564 49.446198 76.791214
218 2 1  0.000000 58.975887 48.776726 77.444054
219 2 1  0.000000 60.783920 48.873890 77.350700
220 2 1  0.000000 61.932877 50.374256 78.416008
221 2 1  0.000000 62.548946 49.400753 79.189934
222 2 1  0.000000 62.932724 47.652988 78.787750
223 2 1  0.000000 63.531433 47.620525 80.028885
224 2 1  0.000000 64.794014 47.867981 80.623390
225 2 1  0.000000 65.003136 46.608738 81.624657
226 2 1  0.000000 66.601257 47.281799 81.221527
227 2 1  0.000000 65.439072 47.830299 82.378075
228 2 1  0.000000 66.135117 49.423927 83.151405
229 2 1  0.000000 67.834167 49.390404 82.048462
230 2 1  0.000000 69.002853 49.585205 81.142395
231 2 1  0.000000 69.172638 50.448410 81.399010
232 2 1  0.000000 68.954262 49.793507 79.844948
233 2 1  0.000000 70.583168 49.538170 79.992180
234 2 1  0.000000 70.862206 47.756084 79.554771
235 2 1  0.000000 72.254158 48.073483 80.010086
236 2 1  0.000000 72.339760 49.240028 79.357742
237 2 1  0.000000 73.253105 50.135658 78.706367
238 2 1  0.000000 74.031670 51.159981 79.967155
239 2 1  0.000000 73.630226 51.336723 80.951424
240 2 1  0.000000 72.873085 50.214935 82.391563
241 2 1  0.000000 74.681335 49.298378 83.004410
242 2 1  0.000000 75.130394 49.152073 84.828171
243 2 1  0.000000 75.686363 47.818398 85.979027
244 2 1  0.000000 76.097672 48.259853 84.804291
245 2 1  0.000000 76.541443 46.878487 83.757317
246 2 1  0.000000 76.910500 46.729164 82.205345
247 2 1  0.000000 76.532776 45.787235 79.983452
248 2 1  0.000000 76.720184 44.696743 78.875519
249 2 1  0.000000 75.958679 45.617874 76.987862
250 2 1  0.000000 75.404602 46.243233 75.736282
251 2 1  0.000000 76.037689 47.974792 76.119034
252 2 1  0.000000 77.259987 47.817070 76.803497
253 2 1  0.000000 78.866119 48.377869 76.759773
254 2 1  0.000000 79.718964 48.973614 77.235855
255 2 1  0.000000 79.824638 48.011745 78.895973
256 2 1  0.000000 79.770042 46.222771 79.639503
257 2 1  0.000000 80.821510 46.030643 80.769455
258 2 1  0.000000 81.046623 44.293144 79.957527
259 2 1  0.000000 81.740349 42.963314 79.120239
260 2 1  0.000000 83.137260 44.257565 79.554214
261 2 1  0.000000 82.378136 44.818508 77.924576
262 2 1  0.000000 83.599426 45.577389 78.171631
263 2 1  0.000000 83.667557 46.576508 77.269508
264 2 1  0.000000 84.127808 47.823528 78.649559
265 2 1  0.000000 85.646683 47.015823 79.706062
266 2 1  0.000000 86.951828 47.281948 80.478943
267 2 1  0.000000 86.248322 46.100414 81.538132
268 2 1  0.000000 87.438271 45.468079 80.877213
269 2 1  0.000000 87.896439 43.401733 80.451027
270 2 1  0.000000 88.312599 42.030998 80.797073
271 2 1  0.000000 88.880615 42.102299 79.618401
272 2 1  0.000000 90.088966 40.987709 79.159081
273 2 1  0.000000 91.455872 40.727188 79.380417
274 2 1  0.000000 91.649147 42.538815 79.720688
275 2 1  0.000000 91.949951 41.778671 81.744476
276 2 1  0.000000 92.536842 43.038677 81.646263
277 2 1  0.000000 91.889671 43.494442 83.127914
278 2 1  0.000000 93.355431 43.604465 83.192406
279 2 1  0.000000 94.831535 45.435909 82.622894
280 2 1  0.000000 94.932327 47.340450 82.520058
281 2 1  0.000000 96.664650 47.860779 82.939255
282 2 1  0.000000 95.622452 48.850784 82.594475
283 2 1  0.000000 96.672485 49.213306 82.580650
284 2 1  0.000000 97.988853 49.835396 83.688499
285 2 1  0.000000 99.655869 50.385624 83.518219
286 2 1  0.000000 100.578453 49.715221 82.198769
287 2 1  0.000000 99.782799 51.290554 81.673119
288 2 1  0.000000 99.816902 49.436806 80.999924
289 2 1  0.000000 100.468575 48.054531 81.748741
290 2 1  0.000000 101.266106 46.332767 80.888107
291 2 1  0.000000 102.824036 46.355381 81.248711
292 2 1  0.000000 103.918030 46.550198 82.416779
293 2 1  0.000000 104.457832 48.181614 82.103088
294 2 1  0.000000 105.657372 49.452984 80.739914
295 2 1  0.000000 106.554642 48.063931 81.234116
296 2 1  0.000000 107.661339 48.998890 80.779327
297 2 1  0.000000 109.009903 49.303524 80.941910
298 2 1  0.000000 110.771278 49.165649 81.161522
299 2 1  0.000000 111.500191 50.651989 81.338623
300 2 1  0.000000 112.140984 51.276871 82.497231
301 3 1  0.000000 52.485355 61.551327 86.286423
302 3 1  0.000000 52.263683 59.795635 86.046524
303 3 1  0.000000 52.497738 58.308010 87.046776
304 3 1  0.000000 53.426281 59.350712 88.126968
305 3 1  0.000000 53.459881 58.372318 89.161789
306 3 1  0.000000 54.697929 57.707596 89.256264
307 3 1  0.000000 55.349937 59.075699 88.891533
308 3 1  0.000000 56.929024 59.743134 89.925919
309 3 1  0.000000 58.126961 60.649872 90.545937
310 3 1  0.000000 59.571636 61.187958 90.137115
311 3 1  0.000000 60.627026 62.538052 89.301277
312 3 1  0.000000 62.231110 62.613491 88.987106
313 3 1  0.000000 62.483227 63.358749 87.459984
314 3 1  0.000000 62.301537 61.707584 87.515182
315 3 1  0.000000 61.679493 61.907990 86.067284
316 3 1  0.000000 59.647102 61.367329 85.334900
317 3 1  0.000000 58.274708 61.509197 85.743347
318 3 1  0.000000 57.616127 63.084160 85.806610
319 3 1  0.000000 57.214817 64.496216 84.788086
320 3 1  0.000000 57.954224 64.739136 84.553810
321 3 1  0.000000 58.088673 65.461227 82.876991
322 3 1  0.000000 59.687321 65.816666 81.785782
323 3 1  0.000000 61.583828 65.834145 81.857796
324 3 1  0.000000 60.887997 64.855438 82.327339
325 3 1  0.000000 62.580593 65.394127 82.935852
326 3 1  0.000000 62.542831 66.746361 83.614357
327 3 1  0.000000 63.934444 66.757118 84.191002
328 3 1  0.000000 65.968063 66.463165 84.335449
329 3 1  0.000000 66.764626 66.234024 83.257195
330 3 1  0.000000 65.612427 65.389023 84.276199
331 3 1  0.000000 65.481636 64.081818 84.897820
332 3 1  0.000000 66.544090 63.510094 83.884438
333 3 1  0.000000 67.919235 62.586357 84.522491
334 3 1  0.000000 68.992805 63.962749 84.155952
335 3 1  0.000000 70.028305 65.328949 84.388786
336 3 1  0.000000 71.635330 65.833008 84.937965
337 3 1  0.000000 72.797249 64.746231 84.424828
338 3 1  0.000000 73.929993 65.867485 83.576569
339 3 1  0.000000 75.755569 66.376106 83.551598
340 3 1  0.000000 77.316963 66.761444 82.930893
341 3 1  0.000000 77.543015 65.256760 83.179451
342 3 1  0.000000 76.834000 63.862499 82.175468
343 3 1  0.000000 76.836159 62.331097 81.718346
344 3 1  0.000000 77.013016 61.862492 83.461090
345 3 1  0.000000 75.818260 60.985378 84.428368
346 3 1  0.000000 75.662834 59.762497 83.870720
347 3 1  0.000000 75.521400 58.115154 83.951286
348 3 1  0.000000 76.269386 56.740108 83.050636
349 3 1  0.000000 77.903442 57.136574 83.411766
350 3 1  0.000000 78.574738 57.222477 84.771133
351 3 1  0.000000 79.475105 58.566254 85.284332
352 3 1  0.000000 81.019608 59.519001 85.620529
353 3 1  0.000000 80.581924 61.236546 85.035545
354 3 1  0.000000 79.346260 62.232315 85.757622
355 3 1  0.000000 79.618080 63.869942 86.145058
356 3 1  0.000000 80.122261 63.894554 84.744308
357 3 1  0.000000 80.812607 65.210533 85.612404
358 3 1  0.000000 81.538330 66.371780 85.453537
359 3 1  0.000000 81.883575 66.025391 84.098206
360 3 1  0.000000 83.172310 66.015381 84.916832
361 3 1  0.000000 83.228973 67.116043 84.500565
362 3 1  0.000000 84.553650 66.553040 83.701477
363 3 1  0.000000 86.155533 66.514626 82.922935
364 3 1  0.000000 85.192131 65.305283 82.630165
365 3 1  0.000000 86.547958 65.390602 83.466759
366 3 1  0.000000 87.271713 64.351463 82.613754
367 3 1  0.000000 87.833328 63.692551 81.255341
368 3 1  0.000000 88.280785 62.383888 79.629974
369 3 1  0.000000 87.721977 62.645966 78.335312
370 3 1  0.000000 88.710968 60.935818 77.472397
371 3 1  0.000000 88.722885 59.719006 78.058052
372 3 1  0.000000 89.546097 58.950230 76.670280
373 3 1  0.000000 89.493484 59.892792 75.508522
374 3 1  0.000000 90.767128 59.019447 75.639870
375 3 1  0.000000 92.330978 58.509048 74.978767
376 3 1  0.000000 93.533310 58.679585 74.001099
377 3 1  0.000000 94.328918 57.123734 74.382309
378 3 1  0.000000 95.251167 56.978760 75.856430
379 3 1  0.000000 97.093330 57.522919 75.627274
380 3 1  0.000000 96.966286 56.001999 76.173874
381 3 1  0.000000 96.998108 54.724293 74.843147
382 3 1  0.000000 98.083710 55.631088 73.344513
383 3 1  0.000000 98.216202 54.376236 72.413521
384 3 1  0.000000 98.652649 55.468708 71.717278
385 3 1  0.000000 100.125443 56.017532 71.841347
386 3 1  0.000000 100.896378 56.022415 70.224358
387 3 1  0.000000 101.494316 57.447834 70.545975
388 3 1  0.000000 102.222504 59.113338 70.697632
389 3 1  0.000000 101.275475 59.821808 70.464127
390 3 1  0.000000 102.421158 60.553204 72.068420
391 3 1  0.000000 101.253044 61.928417 73.262383
392 3 1  0.000000 102.485474 62.712124 72.402130
393 3 1  0.000000 103.144348 64.204124 72.134552
394 3 1  0.000000 101.609291 64.421188 71.912140
395 3 1  0.000000 101.423134 65.963593 70.785118
396 3 1  0.000000 101.493294 67.168793 71.554199
397 3 1  0.000000 100.440666 68.387154 72.408218
398 3 1  0.000000 98.873146 67.511841 72.604164
399 3 1  0.000000 98.643074 68.933998 72.627541
400 3 1  0.000000 97.334076 69.938583 71.708931
401 4 1  0.000000 57.517899 81.412193 78.167595
402 4 1  0.000000 57.232830 81.637138 76.196266
403 4 1  0.000000 56.410213 81.105553 74.369072
404 4 1  0.000000 55.122921 80.093124 74.323753
405 4 1  0.000000 55.105335 79.606323 72.885040
406 4 1  0.000000 54.340202 78.041809 72.794609
407 4 1  0.000000 54.360725 77.791168 71.471001
408 4 1  0.000000 55.127953 76.586472 70.749283
409 4 1  0.000000 56.765697 77.063606 69.601265
410 4 1  0.000000 57.778774 76.864738 70.589211
411 4 1  0.000000 58.702602 75.743835 71.073532
412 4 1  0.000000 59.723038 76.049377 72.019203
413 4 1  0.000000 61.322369 75.495361 72.626778
414 4 1  0.000000 61.326698 74.623215 74.250214
415 4 1  0.000000 62.449039 73.517090 74.161179
416 4 1  0.000000 62.722248 72.310669 74.727692
417 4 1  0.000000 62.921631 70.390190 75.364700
418 4 1  0.000000 61.285122 70.467003 76.020264
419 4 1  0.000000 61.530552 71.482384 76.797440
420 4 1  0.000000 62.695591 71.837578 77.892708
421 4 1  0.000000 63.133823 72.327232 79.305405
422 4 1  0.000000 62.600155 72.586555 78.047356
423 4 1  0.000000 62.089767 73.335991 79.696823
424 4 1  0.000000 62.906715 74.518974 79.885330
425 4 1  0.000000 64.352806 75.279129 78.828041
426 4 1  0.000000 63.333679 76.418213 79.830223
427 4 1  0.000000 64.184944 77.978477 80.015083
428 4 1  0.000000 65.501190 77.433517 80.351753
429 4 1  0.000000 66.686821 75.989243 80.382088
430 4 1  0.000000 68.000381 75.334770 80.699547
431 4 1  0.000000 67.919022 74.595657 82.429787
432 4 1  0.000000 68.878616 74.489197 83.194275
433 4 1  0.000000 70.316910 74.207397 83.274284
434 4 1  0.000000 71.420128 75.026245 82.451141
435 4 1  0.000000 71.529251 75.699280 81.436302
436 4 1  0.000000 72.486458 76.746033 81.858238
437 4 1  0.000000 71.934288 78.247749 82.325897
438 4 1  0.000000 71.272415 79.013832 83.647293
439 4 1  0.000000 72.854912 78.673386 85.238945
440 4 1  0.000000 74.485542 79.153976 85.786102
441 4 1  0.000000 74.619644 78.840431 84.275383
442 4 1  0.000000 75.295692 80.012192 83.641724
443 4 1  0.000000 75.786194 78.234474 82.850845
444 4 1  0.000000 77.155602 79.063156 81.901024
445 4 1  0.000000 78.792778 79.138695 82.549362
446 4 1  0.000000 79.828384 78.921150 83.466095
447 4 1  0.000000 79.909660 78.480484 82.393288
448 4 1  0.000000 80.717865 78.959251 83.913651
449 4 1  0.000000 81.665642 78.860794 85.327934
450 4 1  0.000000 82.571808 78.479446 86.114799
451 4 1  0.000000 82.375969 76.375183 86.649704
452 4 1  0.000000 82.529068 75.011932 85.801285
453 4 1  0.000000 83.635002 74.967659 84.373436
454 4 1  0.000000 82.516426 74.165291 84.881294
455 4 1  0.000000 82.601372 72.590118 84.356194
456 4 1  0.000000 81.719292 71.584297 83.564980
457 4 1  0.000000 82.377502 71.302666 85.256424
458 4 1  0.000000 83.763397 71.006683 84.422539
459 4 1  0.000000 83.763725 69.802124 85.755829
460 4 1  0.000000 83.589294 68.613647 87.543755
461 4 1  0.000000 82.664406 68.958824 89.240845
462 4 1  0.000000 81.971909 70.879951 89.310463
463 4 1  0.000000 82.309441 71.542404 90.945221
464 4 1  0.000000 83.974571 71.545982 90.166916
465 4 1  0.000000 84.145599 72.485374 91.912254
466 4 1  0.000000 84.359886 70.940445 92.538406
467 4 1  0.000000 85.561333 71.190430 93.120453
468 4 1  0.000000 87.409470 71.868507 92.079979
469 4 1  0.000000 88.774338 70.969704 92.205795
470 4 1  0.000000 89.078178 72.508789 92.914726
471 4 1  0.000000 89.008286 73.386482 94.216843
472 4 1  0.000000 90.364067 74.370323 93.639534
473 4 1  0.000000 90.966545 75.431801 94.148666
474 4 1  0.000000 92.253090 75.694565 94.090118
475 4 1  0.000000 92.721924 74.467140 94.078979
476 4 1  0.000000 94.225960 74.391823 92.896454
477 4 1  0.000000 93.959457 75.201469 93.892311
478 4 1  0.000000 94.869347 74.394211 92.590355
479 4 1  0.000000 96.659363 73.692215 92.285500
480 4 1  0.000000 97.055016 74.230682 91.001213
481 4 1  0.000000 97.652321 75.308907 90.593513
482 4 1  0.000000 98.089790 74.144882 89.962975
483 4 1  0.000000 96.992058 73.411072 88.662125
484 4 1  0.000000 96.339172 72.517029 88.167244
485 4 1  0.000000 96.822395 71.517288 89.698563
486 4 1  0.000000 97.111885 70.061073 90.965614
487 4 1  0.000000 97.667236 69.190811 90.162636
488 4 1  0.000000 97.456543 69.784622 91.688362
489 4 1  0.000000 98.783524 69.344612 91.665474
490 4 1  0.000000 99.652710 69.024010 92.973518
491 4 1  0.000000 98.920845 68.269386 94.645752
492 4 1  0.000000 98.163971 66.915947 94.385933
493 4 1  0.000000 99.601494 66.776932 94.197365
494 4 1  0.000000 100.756119 66.284225 93.535759
495 4 1  0.000000 102.069420 65.635017 93.689049
496 4 1  0.000000 103.132179 65.603729 92.773224
497 4 1  0.000000 101.693741 65.100662 91.945923
498 4 1  0.000000 101.848427 64.174889 90.623245
499 4 1  0.000000 102.870369 63.232422 89.954819
500 4 1  0.000000 101.775238 63.758499 90.193230
501 5 1  0.000000 55.924381 90.679855 66.935173
502 5 1  0.000000 57.009869 91.461693 65.758759
503 5 1  0.000000 58.318592 91.680069 66.920479
504 5 1  0.000000 58.331345 92.980423 68.022644
505 5 1  0.000000 60.127819 91.987137 67.541145
506 5 1  0.000000 61.438473 91.353394 66.616257
507 5 1  0.000000 62.516861 92.627632 67.122009
508 5 1  0.000000 61.791924 92.532593 68.393112
509 5 1  0.000000 63.079559 92.889122 69.202766
510 5 1  0.000000 61.798840 93.686348 69.924019
511 5 1  0.000000 61.649078 92.875877 71.269569
512 5 1  0.000000 61.769409 94.288918 72.356361
513 5 1  0.000000 62.360828 92.629333 72.718674
514 5 1  0.000000 62.998806 91.746307 73.466217
515 5 1  0.000000 63.184006 90.069687 73.613754
516 5 1  0.000000 63.119492 88.197968 72.875702
517 5 1  0.000000 64.107323 87.727402 71.990273
518 5 1  0.000000 64.980537 86.922440 73.651169
519 5 1  0.000000 65.837265 85.316002 73.334427
520 5 1  0.000000 66.776672 84.876831 71.708969
521 5 1  0.000000 66.547241 83.523720 72.459305
522 5 1  0.000000 68.423927 83.492157 72.640121
523 5 1  0.000000 70.050621 83.880577 72.011955
524 5 1  0.000000 70.287498 82.450912 72.147530
525 5 1  0.000000 71.024284 80.773972 71.565277
526 5 1  0.000000 72.353188 80.723320 71.978874
527 5 1  0.000000 73.338120 81.913460 72.767540
528 5 1  0.000000 73.893921 82.278877 70.880554
529 5 1  0.000000 74.588806 82.442375 69.070259
530 5 1  0.000000 75.115555 83.862434 69.279633
531 5 1  0.000000 76.245346 83.257011 69.502480
532 5 1  0.000000 77.378784 82.283707 70.671539
533 5 1  0.000000 79.113770 82.666733 69.520065
534 5 1  0.000000 78.996536 80.846054 69.809608
535 5 1  0.000000 79.703979 80.814110 68.286148
536 5 1  0.000000 81.269684 80.437859 69.014275
537 5 1  0.000000 82.334572 79.907402 68.985123
538 5 1  0.000000 83.564545 79.392426 68.288460
539 5 1  0.000000 84.807983 80.737297 68.607376
540 5 1  0.000000 85.046082 81.101181 69.969711
541 5 1  0.000000 84.402390 80.685097 71.706345
542 5 1  0.000000 83.911995 82.300438 72.177223
543 5 1  0.000000 83.174500 82.524147 73.412651
544 5 1  0.000000 83.364876 83.921967 74.389084
545 5 1  0.000000 82.446022 84.093826 75.456772
546 5 1  0.000000 82.113518 85.466286 75.965317
547 5 1  0.000000 81.516533 84.305458 76.370987
548 5 1  0.000000 82.082848 83.321220 77.328735
549 5 1  0.000000 82.470032 81.661644 78.887314
550 5 1  0.000000 84.325745 80.907173 78.601845
551 5 1  0.000000 84.311028 80.373436 77.308136
552 5 1  0.000000 84.469864 80.162437 75.896538
553 5 1  0.000000 85.319954 81.308777 75.431816
554 5 1  0.000000 86.841782 82.280212 75.872276
555 5 1  0.000000 87.157921 82.303963 77.346817
556 5 1  0.000000 88.793877 82.067429 77.357094
557 5 1  0.000000 89.350250 81.039543 76.181534
558 5 1  0.000000 90.324722 80.400887 75.693207
559 5 1  0.000000 90.932030 81.849686 75.435715
560 5 1  0.000000 91.818207 83.105721 75.019646
561 5 1  0.000000 91.983383 84.173859 76.061516
562 5 1  0.000000 92.793068 85.472595 76.119743
563 5 1  0.000000 93.673477 86.424881 77.090195
564 5 1  0.000000 94.386055 86.479019 76.176964
565 5 1  0.000000 96.000206 86.276962 75.745575
566 5 1  0.000000 96.143257 85.693291 74.462219
567 5 1  0.000000 96.768539 84.779968 74.871880
568 5 1  0.000000 98.025841 84.225998 75.191597
569 5 1  0.000000 97.255066 82.748764 74.741974
570 5 1  0.000000 98.868279 83.411942 75.032593
571 5 1  0.000000 99.129715 82.934250 76.351959
572 5 1  0.000000 98.674423 82.085350 77.580200
573 5 1  0.000000 99.571075 82.838554 78.383278
574 5 1  0.000000 101.037956 82.923889 77.874069
575 5 1  0.000000 101.357361 83.555618 79.356262
576 5 1  0.000000 102.167091 84.874763 78.294800
577 5 1  0.000000 101.737038 85.722504 76.960289
578 5 1  0.000000 103.153160 84.859001 76.393173
579 5 1  0.000000 103.624168 85.998322 76.564423
580 5 1  0.000000 105.254097 85.704033 75.743629
581 5 1  0.000000 105.267975 85.747726 77.257851
582 5 1  0.000000 106.565559 86.551720 77.062592
583 5 1  0.000000 107.075706 85.849052 78.621048
584 5 1  0.000000 107.255424 87.443665 79.517899
585 5 1  0.000000 108.576180 87.389206 80.174583
586 5 1  0.000000 108.503296 88.001244 81.497574
587 5 1  0.000000 108.921547 89.580696 82.861351
588 5 1  0.000000 109.794067 89.953857 83.962273
589 5 1  0.000000 109.992943 91.246864 85.623398
590 5 1  0.000000 111.125687 92.245880 85.334122
591 5 1  0.000000 110.151352 92.930595 86.620750
592 5 1  0.000000 111.800903 93.370193 87.248283
593 5 1  0.000000 111.340797 92.849091 88.361282
594 5 1  0.000000 110.948067 92.491158 90.017471
595 5 1  0.000000 111.192612 92.869675 91.596199
596 5 1  0.000000 111.890518 91.662621 91.232712
597 5 1  0.000000 110.821442 91.954941 92.269791
598 5 1  0.000000 110.199409 90.427612 93.646774
599 5 1  0.000000 109.756317 90.045113 91.941689
600 5 1  0.000000 109.818153 88.894966 91.131508
601 6 1  0.000000 61.565781 86.227745 99.110291
602 6 1  0.000000 61.796444 87.075111 96.999763
603 6 1  0.000000 60.556156 88.329201 96.988785
604 6 1  0.000000 62.334194 87.425331 96.469185
605 6 1  0.000000 64.309929 86.755783 96.653976
606 6 1  0.000000 65.129761 85.363670 97.253075
607 6 1  0.000000 65.378036 83.691132 97.811493
608 6 1  0.000000 66.889030 82.891640 97.969612
609 6 1  0.000000 67.167244 84.420830 97.700729
610 6 1  0.000000 68.514755 84.662987 97.343987
611 6 1  0.000000 68.691299 85.643433 96.232582
612 6 1  0.000000 68.402016 87.278526 96.218163
613 6 1  0.000000 69.841583 87.486290 95.852470
614 6 1  0.000000 70.085411 88.784370 95.141434
615 6 1  0.000000 70.877724 89.324120 96.684341
616 6 1  0.000000 71.426689 89.341209 95.815765
617 6 1  0.000000 72.937210 88.691010 95.520859