Created with TaichiMD

1000 atoms
990 bonds
  0 angles
  0 dihedrals
  0 impropers

1 atom types
1 bond types
0 angle types
0 dihedral types
0 improper types

-80.00000  80.00000 xlo xhi
-80.00000  80.00000 ylo yhi
-80.00000  80.00000 zlo zhi

Masses

1 10.0000

Atoms

  1 0 1  0.000000 97.915909  1.400498 91.926918
  2 0 1  0.000000 97.399353  1.921946 91.531364
  3 0 1  0.000000 96.045761  1.099464 92.609886
  4 0 1  0.000000 94.645462  0.795753 93.256332
  5 0 1  0.000000 93.301529  0.613460 94.193558
  6 0 1  0.000000 93.547241 -0.002295 95.856720
  7 0 1  0.000000 93.998337 -0.854894 96.858665
  8 0 1  0.000000 95.007492 -0.235774 97.789993
  9 0 1  0.000000 94.558105  1.311753 97.432243
 10 0 1  0.000000 96.234406  1.817262 98.231415
 11 0 1  0.000000 96.516426  2.232922 96.842674
 12 0 1  0.000000 97.433067  3.076002 95.616173
 13 0 1  0.000000 98.845009  2.421546 95.083542
 14 0 1  0.000000 100.202324  1.738561 94.808449
 15 0 1  0.000000 100.690948  0.644262 94.040215
 16 0 1  0.000000 101.891312  1.249037 95.240273
 17 0 1  0.000000 103.783257  1.792455 95.909615
 18 0 1  0.000000 104.807190  2.813264 95.470589
 19 0 1  0.000000 105.041534  4.571921 95.527367
 20 0 1  0.000000 104.591278  6.119667 95.423058
 21 0 1  0.000000 103.897011  6.295253 96.404938
 22 0 1  0.000000 103.679955  7.281831 95.695465
 23 0 1  0.000000 103.258789  8.640498 94.296204
 24 0 1  0.000000 102.310547  9.523730 93.685852
 25 0 1  0.000000 102.944771  9.009840 92.221939
 26 0 1  0.000000 100.998268  8.606265 90.738274
 27 0 1  0.000000 100.071533  9.409225 89.835320
 28 0 1  0.000000 98.808327  8.490049 89.557106
 29 0 1  0.000000 96.872612  9.279287 90.345955
 30 0 1  0.000000 96.046951  8.726250 89.422676
 31 0 1  0.000000 94.511581 10.109111 89.816605
 32 0 1  0.000000 92.571892 10.332518 89.539253
 33 0 1  0.000000 92.630150 11.102439 88.399849
 34 0 1  0.000000 91.484711 10.707927 87.009346
 35 0 1  0.000000 90.773727 10.418559 88.882614
 36 0 1  0.000000 89.399010  9.906106 88.887024
 37 0 1  0.000000 89.903374  8.935166 87.113937
 38 0 1  0.000000 88.262032  8.451803 86.415367
 39 0 1  0.000000 88.714790  7.536657 84.735214
 40 0 1  0.000000 87.855743  7.790904 83.781548
 41 0 1  0.000000 87.784134  8.931814 84.329124
 42 0 1  0.000000 87.704056 10.123780 83.296486
 43 0 1  0.000000 87.705345 11.588051 84.524101
 44 0 1  0.000000 87.905090 13.191959 85.452415
 45 0 1  0.000000 86.261345 12.707079 85.376755
 46 0 1  0.000000 85.891960 14.764026 86.494339
 47 0 1  0.000000 87.470123 15.017608 87.906418
 48 0 1  0.000000 85.394325 15.588550 88.283325
 49 0 1  0.000000 83.552963 15.606870 88.859253
 50 0 1  0.000000 82.437096 17.887171 89.744919
 51 0 1  0.000000 82.593193 19.796968 89.399895
 52 0 1  0.000000 82.243675 21.601019 89.460152
 53 0 1  0.000000 80.954811 23.318575 89.792961
 54 0 1  0.000000 81.520142 24.557417 90.198830
 55 0 1  0.000000 80.683495 25.900183 89.522659
 56 0 1  0.000000 79.159424 26.459894 90.263954
 57 0 1  0.000000 79.321922 27.945450 91.243462
 58 0 1  0.000000 77.826866 27.225527 90.357307
 59 0 1  0.000000 77.627022 26.945259 91.958420
 60 0 1  0.000000 76.535271 26.070250 92.623672
 61 0 1  0.000000 75.036728 25.440683 92.927116
 62 0 1  0.000000 76.659523 26.090172 93.946266
 63 0 1  0.000000 77.229225 27.458786 95.145500
 64 0 1  0.000000 76.554558 28.155888 96.821419
 65 0 1  0.000000 74.416267 28.494728 96.920158
 66 0 1  0.000000 73.405136 29.755421 96.162933
 67 0 1  0.000000 72.838486 28.760509 96.860504
 68 0 1  0.000000 71.787643 27.756756 95.885635
 69 0 1  0.000000 71.283768 26.253027 96.464996
 70 0 1  0.000000 69.875145 25.959162 95.698006
 71 0 1  0.000000 68.899750 25.612007 97.321999
 72 0 1  0.000000 69.355499 24.499935 96.203949
 73 0 1  0.000000 69.589333 22.710138 95.879868
 74 0 1  0.000000 69.666595 22.744287 97.853630
 75 0 1  0.000000 67.875175 22.238167 98.066628
 76 0 1  0.000000 65.937210 21.739561 97.053085
 77 0 1  0.000000 66.323479 22.268503 98.460655
 78 0 1  0.000000 64.916443 21.856499 99.575989
 79 0 1  0.000000 64.070305 21.333662 101.333092
 80 0 1  0.000000 63.431980 23.561386 101.008125
 81 0 1  0.000000 62.138901 23.962044 100.908340
 82 0 1  0.000000 63.138443 25.183510 101.643044
 83 0 1  0.000000 61.647419 25.413439 100.870056
 84 0 1  0.000000 61.896152 26.584120 102.066238
 85 0 1  0.000000 60.964462 28.115959 102.271904
 86 0 1  0.000000 60.697632 28.192991 104.182335
 87 0 1  0.000000 60.266449 29.297977 104.949394
 88 0 1  0.000000 61.565823 28.565689 106.262688
 89 0 1  0.000000 62.920124 29.320353 105.740807
 90 0 1  0.000000 63.462711 27.419064 106.425552
 91 0 1  0.000000 63.635612 27.312233 108.157524
 92 0 1  0.000000 62.267876 25.913527 108.919319
 93 0 1  0.000000 61.018452 25.718731 109.797256
 94 0 1  0.000000 61.283192 27.034969 110.945969
 95 0 1  0.000000 61.707359 28.996880 110.938232
 96 0 1  0.000000 63.522800 29.420078 110.456200
 97 0 1  0.000000 62.603310 30.261122 109.604362
 98 0 1  0.000000 63.592129 31.510538 109.351364
 99 0 1  0.000000 63.459763 32.814873 110.515198
100 0 1  0.000000 63.380161 34.114769 110.473488
101 1 1  0.000000 106.303665 26.411985 101.857986
102 1 1  0.000000 105.983139 28.187248 100.929626
103 1 1  0.000000 105.218971 27.671862 99.410629
104 1 1  0.000000 106.809906 28.359175 98.145264
105 1 1  0.000000 106.118004 28.866131 96.831230
106 1 1  0.000000 107.884193 29.113157 96.922836
107 1 1  0.000000 106.616302 28.161657 95.878548
108 1 1  0.000000 106.619049 28.209812 94.198257
109 1 1  0.000000 106.537773 28.938671 92.862389
110 1 1  0.000000 107.894028 28.352978 93.485176
111 1 1  0.000000 108.376053 29.284586 93.009682
112 1 1  0.000000 109.670723 29.580719 92.131462
113 1 1  0.000000 109.908325 29.146742 90.070297
114 1 1  0.000000 110.644104 27.581764 89.150261
115 1 1  0.000000 112.504547 27.883532 89.606560
116 1 1  0.000000 113.565506 27.330490 87.994522
117 1 1  0.000000 114.122154 28.985752 87.588264
118 1 1  0.000000 115.418671 29.265682 88.134636
119 1 1  0.000000 116.496872 28.901905 89.704834
120 1 1  0.000000 115.594467 29.953049 88.830338
121 1 1  0.000000 116.026390 30.984428 89.840828
122 1 1  0.000000 114.807472 32.277031 90.853279
123 1 1  0.000000 114.426964 33.476196 90.696831
124 1 1  0.000000 113.932983 35.156334 90.688568
125 1 1  0.000000 112.961571 34.245541 91.191338
126 1 1  0.000000 113.991730 35.818176 90.829025
127 1 1  0.000000 114.681961 37.031338 91.697472
128 1 1  0.000000 113.002892 38.386761 91.888275
129 1 1  0.000000 111.884232 38.022068 93.132675
130 1 1  0.000000 111.794388 39.652218 92.238342
131 1 1  0.000000 110.421417 40.248581 92.336838
132 1 1  0.000000 108.838966 40.859009 92.919334
133 1 1  0.000000 108.323738 42.252434 91.747009
134 1 1  0.000000 107.982414 43.905331 91.559372
135 1 1  0.000000 106.803169 44.283421 91.026833
136 1 1  0.000000 104.788902 43.830585 91.524681
137 1 1  0.000000 102.554840 43.480976 92.028236
138 1 1  0.000000 103.192635 43.458092 90.495255
139 1 1  0.000000 101.880898 44.753902 89.979088
140 1 1  0.000000 101.663956 44.923958 88.492836
141 1 1  0.000000 100.142067 43.852314 89.023048
142 1 1  0.000000 98.940033 42.569557 90.055901
143 1 1  0.000000 97.760094 42.601681 91.445442
144 1 1  0.000000 96.754868 41.546474 91.862457
145 1 1  0.000000 94.887276 40.983791 91.843201
146 1 1  0.000000 93.819183 40.213200 91.412567
147 1 1  0.000000 93.227646 41.326908 89.875580
148 1 1  0.000000 92.574631 39.768459 88.887077
149 1 1  0.000000 91.596161 41.117607 88.395447
150 1 1  0.000000 90.743362 41.994476 88.204491
151 1 1  0.000000 89.622696 41.552338 89.091797
152 1 1  0.000000 89.004112 40.278103 87.813583
153 1 1  0.000000 88.473640 38.545921 88.322968
154 1 1  0.000000 87.597160 38.426998 86.869095
155 1 1  0.000000 86.859802 38.053368 88.289520
156 1 1  0.000000 85.160927 38.344784 87.232109
157 1 1  0.000000 84.154198 37.015423 86.323715
158 1 1  0.000000 83.893532 36.105816 87.100105
159 1 1  0.000000 82.476494 35.929214 87.204018
160 1 1  0.000000 80.736397 36.628014 86.553719
161 1 1  0.000000 80.255325 36.458916 84.938583
162 1 1  0.000000 79.368156 35.717319 84.098564
163 1 1  0.000000 78.397636 36.353249 85.351959
164 1 1  0.000000 77.521042 35.419899 86.622940
165 1 1  0.000000 75.972588 36.165382 86.042664
166 1 1  0.000000 74.867325 35.712090 86.430214
167 1 1  0.000000 73.553223 36.715996 85.305031
168 1 1  0.000000 72.538567 35.871487 84.186043
169 1 1  0.000000 71.380684 37.005642 83.548355
170 1 1  0.000000 69.834579 35.732517 83.860428
171 1 1  0.000000 69.135872 35.945648 82.540375
172 1 1  0.000000 68.512787 35.370457 81.291969
173 1 1  0.000000 66.932350 36.043949 81.008263
174 1 1  0.000000 65.529480 36.745468 80.253716
175 1 1  0.000000 64.547798 38.133457 80.345451
176 1 1  0.000000 63.079815 38.339809 79.637978
177 1 1  0.000000 62.066441 38.708076 80.509773
178 1 1  0.000000 61.570362 38.655582 78.460770
179 1 1  0.000000 60.169010 37.768444 78.426964
180 1 1  0.000000 58.998676 39.326424 78.336967
181 1 1  0.000000 57.589153 39.463493 76.930763
182 1 1  0.000000 58.006954 38.877789 75.424103
183 1 1  0.000000 58.061771 38.478413 73.623665
184 1 1  0.000000 58.020691 38.683659 72.119606
185 1 1  0.000000 58.545563 39.755028 71.224998
186 1 1  0.000000 59.910561 39.496151 71.323730
187 1 1  0.000000 60.772961 39.870808 69.325546
188 1 1  0.000000 62.400620 40.444489 68.310799
189 1 1  0.000000 62.795013 41.925198 68.290993
190 1 1  0.000000 63.757114 43.330990 68.230667
191 1 1  0.000000 64.974945 44.285866 69.055061
192 1 1  0.000000 64.341927 43.138454 70.156403
193 1 1  0.000000 64.332260 42.688190 71.677696
194 1 1  0.000000 63.844250 43.631294 71.496758
195 1 1  0.000000 63.027599 42.379303 71.849998
196 1 1  0.000000 62.985981 43.042900 73.492195
197 1 1  0.000000 61.518570 44.045341 73.119942
198 1 1  0.000000 60.824471 43.458794 74.505554
199 1 1  0.000000 60.549683 42.720345 76.034081
200 1 1  0.000000 60.278378 42.171535 77.417015
201 2 1  0.000000 98.311447 64.038826 52.100777
202 2 1  0.000000 97.467583 64.187370 50.263588
203 2 1  0.000000 96.041183 64.650536 49.575455
204 2 1  0.000000 95.587303 63.725208 48.695423
205 2 1  0.000000 94.934761 62.202564 48.613361
206 2 1  0.000000 94.918587 61.117401 49.504997
207 2 1  0.000000 95.627716 60.304737 50.969280
208 2 1  0.000000 94.648796 58.831146 50.875694
209 2 1  0.000000 92.938103 59.299610 49.987495
210 2 1  0.000000 93.239838 59.401764 51.695812
211 2 1  0.000000 93.002083 57.957794 51.908066
212 2 1  0.000000 91.439148 56.443192 51.895332
213 2 1  0.000000 90.623932 55.322968 52.361752
214 2 1  0.000000 88.628036 55.263317 51.673271
215 2 1  0.000000 89.469635 54.259918 51.103783
216 2 1  0.000000 90.032898 52.907768 51.149082
217 2 1  0.000000 88.960129 51.720985 52.389488
218 2 1  0.000000 89.564438 51.424770 53.886192
219 2 1  0.000000 89.475380 50.888203 52.589725
220 2 1  0.000000 88.968643 50.124699 54.323311
221 2 1  0.000000 89.674576 48.408588 54.738880
222 2 1  0.000000 90.124428 46.680912 54.130230
223 2 1  0.000000 91.506134 45.505783 53.703297
224 2 1  0.000000 92.754272 45.626915 53.896809
225 2 1  0.000000 94.024269 46.754627 54.064762
226 2 1  0.000000 94.678658 46.254005 52.401463
227 2 1  0.000000 95.845665 47.526299 51.986813
228 2 1  0.000000 95.225075 47.962376 53.275372
229 2 1  0.000000 96.897598 47.903835 54.300285
230 2 1  0.000000 98.384521 47.216805 53.011635
231 2 1  0.000000 99.796150 48.630569 52.316879
232 2 1  0.000000 100.122841 49.612671 53.927807
233 2 1  0.000000 99.681343 51.076126 54.135925
234 2 1  0.000000 99.147179 51.596817 54.600136
235 2 1  0.000000 97.494400 51.962833 54.360443
236 2 1  0.000000 95.927200 51.203037 54.918282
237 2 1  0.000000 96.077194 53.294746 55.649406
238 2 1  0.000000 94.744537 54.105164 56.550060
239 2 1  0.000000 92.980194 54.397503 57.379784
240 2 1  0.000000 92.892166 53.921101 59.320690
241 2 1  0.000000 91.253799 53.929016 59.815582
242 2 1  0.000000 90.219704 52.067966 59.736095
243 2 1  0.000000 88.126411 52.080883 59.325764
244 2 1  0.000000 87.700554 50.675518 58.778515
245 2 1  0.000000 87.450523 50.260475 60.311146
246 2 1  0.000000 85.745209 50.939480 61.093834
247 2 1  0.000000 84.624153 51.753986 61.914642
248 2 1  0.000000 83.502548 50.683102 62.837925
249 2 1  0.000000 83.304306 51.558353 62.853043
250 2 1  0.000000 84.244904 50.878807 64.122719
251 2 1  0.000000 82.689651 52.161598 64.167603
252 2 1  0.000000 80.526581 51.986893 63.800152
253 2 1  0.000000 78.916351 52.095081 65.370773
254 2 1  0.000000 77.536644 52.201958 66.570763
255 2 1  0.000000 75.869133 52.083618 67.360947
256 2 1  0.000000 76.324554 52.382778 69.107712
257 2 1  0.000000 74.911865 51.846561 68.843521
258 2 1  0.000000 73.692223 50.975281 70.171440
259 2 1  0.000000 72.410797 50.632420 71.007660
260 2 1  0.000000 71.267601 50.540016 72.268082
261 2 1  0.000000 69.807533 50.275856 71.998749
262 2 1  0.000000 68.220879 50.474442 72.513954
263 2 1  0.000000 66.874084 49.342815 73.502464
264 2 1  0.000000 66.275696 49.637703 74.896446
265 2 1  0.000000 64.993813 49.834492 75.967239
266 2 1  0.000000 63.423462 49.060200 75.386292
267 2 1  0.000000 62.072189 48.332394 74.859360
268 2 1  0.000000 60.753803 49.263229 74.591698
269 2 1  0.000000 59.802555 49.995506 76.033844
270 2 1  0.000000 57.583862 50.388664 76.042419
271 2 1  0.000000 57.545090 49.457466 74.842461
272 2 1  0.000000 56.443905 49.346142 75.936234
273 2 1  0.000000 55.451496 48.337818 77.194687
274 2 1  0.000000 54.595554 48.223995 78.992958
275 2 1  0.000000 53.878220 48.834641 80.331635
276 2 1  0.000000 51.646328 48.629135 80.346069
277 2 1  0.000000 50.847809 50.048405 80.102310
278 2 1  0.000000 51.536804 51.265209 80.201172
279 2 1  0.000000 52.606972 52.410191 79.107262
280 2 1  0.000000 52.446018 53.860977 78.303246
281 2 1  0.000000 51.532173 54.566360 77.046600
282 2 1  0.000000 51.952751 55.344303 77.635178
283 2 1  0.000000 52.039822 56.911674 78.001610
284 2 1  0.000000 52.174591 58.173626 77.019081
285 2 1  0.000000 52.804104 57.927410 78.979149
286 2 1  0.000000 54.090633 58.878330 79.635498
287 2 1  0.000000 53.377235 58.626854 80.591888
288 2 1  0.000000 54.079964 59.249779 82.216049
289 2 1  0.000000 55.517540 58.499325 83.075638
290 2 1  0.000000 56.427040 58.996319 84.159477
291 2 1  0.000000 56.856098 57.566704 85.519768
292 2 1  0.000000 57.799744 57.786678 86.766083
293 2 1  0.000000 56.832352 56.667900 87.913528
294 2 1  0.000000 57.194111 55.565166 89.727615
295 2 1  0.000000 58.958160 55.719563 89.772141
296 2 1  0.000000 57.522762 56.080330 90.517876
297 2 1  0.000000 57.405529 56.080414 92.146965
298 2 1  0.000000 59.285572 56.113537 93.364433
299 2 1  0.000000 58.502235 56.492680 94.379044
300 2 1  0.000000 59.155125 55.881958 95.043884
301 3 1  0.000000 101.314743 66.729256 98.979080
302 3 1  0.000000 100.755905 66.301941 100.379921
303 3 1  0.000000 102.299942 66.240891 101.041290
304 3 1  0.000000 102.902962 64.531189 100.402878
305 3 1  0.000000 104.446198 65.040398 100.937248
306 3 1  0.000000 105.024605 63.515640 101.228226
307 3 1  0.000000 105.015198 63.601429 103.325584
308 3 1  0.000000 105.274788 63.453274 104.431961
309 3 1  0.000000 104.065002 64.190208 104.875626
310 3 1  0.000000 102.465744 65.148895 104.344116
311 3 1  0.000000 101.376549 64.494865 105.246552
312 3 1  0.000000 101.845192 65.609512 106.973724
313 3 1  0.000000 101.134796 66.026627 108.168373
314 3 1  0.000000 100.652420 64.607605 108.125771
315 3 1  0.000000 99.068138 64.580566 107.212677
316 3 1  0.000000 97.665405 64.527344 108.023048
317 3 1  0.000000 96.120148 65.131355 107.504402
318 3 1  0.000000 95.142441 64.119049 108.609161
319 3 1  0.000000 94.659874 64.470482 107.113525
320 3 1  0.000000 93.174820 64.210068 107.483185
321 3 1  0.000000 93.528351 63.357582 106.232010
322 3 1  0.000000 92.205261 63.251717 107.221107
323 3 1  0.000000 91.229919 63.962215 106.998466
324 3 1  0.000000 90.309288 64.195427 107.996628
325 3 1  0.000000 90.234406 62.264908 107.746025
326 3 1  0.000000 88.704468 61.881359 106.579536
327 3 1  0.000000 88.449844 62.168198 107.867569
328 3 1  0.000000 86.538338 61.099033 107.762337
329 3 1  0.000000 85.747131 61.102200 108.956711
330 3 1  0.000000 84.555443 60.678127 108.135780
331 3 1  0.000000 84.520447 59.312538 107.037361
332 3 1  0.000000 84.758072 57.259361 106.856552
333 3 1  0.000000 83.238052 57.436028 106.827599
334 3 1  0.000000 83.824142 57.530228 105.257431
335 3 1  0.000000 84.889008 56.526123 104.434196
336 3 1  0.000000 84.334557 56.860008 103.247963
337 3 1  0.000000 83.166031 55.114326 103.896484
338 3 1  0.000000 82.608963 55.819954 103.197662
339 3 1  0.000000 82.421333 56.612858 101.392670
340 3 1  0.000000 83.163086 56.255470 99.394417
341 3 1  0.000000 84.739212 56.373375 98.218994
342 3 1  0.000000 85.678230 57.470558 99.487801
343 3 1  0.000000 86.709808 57.819687 97.831848
344 3 1  0.000000 87.236145 57.243229 99.175743
345 3 1  0.000000 88.375534 56.190445 100.111870
346 3 1  0.000000 90.010956 56.365650 99.975410
347 3 1  0.000000 89.763962 57.017178 101.486565
348 3 1  0.000000 91.476379 56.672829 101.291725
349 3 1  0.000000 91.664024 56.462791 99.693176
350 3 1  0.000000 93.321419 57.534885 99.377037
351 3 1  0.000000 92.431442 56.111855 97.844421
352 3 1  0.000000 94.253380 55.675640 98.415619
353 3 1  0.000000 94.117088 54.422375 97.659782
354 3 1  0.000000 93.382301 55.014690 96.499435
355 3 1  0.000000 94.393593 54.056873 95.161980
356 3 1  0.000000 93.626991 54.654037 94.771523
357 3 1  0.000000 94.679596 54.590672 93.456345
358 3 1  0.000000 94.844193 54.000523 92.524429
359 3 1  0.000000 93.017975 53.778042 92.005844
360 3 1  0.000000 92.097488 55.191063 91.599525
361 3 1  0.000000 91.635849 56.526337 90.904114
362 3 1  0.000000 90.281975 55.365547 91.909775
363 3 1  0.000000 90.149719 56.251907 89.954346
364 3 1  0.000000 88.532341 56.535400 90.686211
365 3 1  0.000000 87.073868 55.893574 90.390106
366 3 1  0.000000 86.846466 57.530827 90.625252
367 3 1  0.000000 86.614616 58.782845 90.266823
368 3 1  0.000000 86.633156 59.515629 91.585022
369 3 1  0.000000 85.610382 59.660053 90.203743
370 3 1  0.000000 85.334679 61.175533 89.183632
371 3 1  0.000000 84.278297 60.716599 88.865181
372 3 1  0.000000 84.413757 61.912090 87.717094
373 3 1  0.000000 82.931419 62.720768 87.429909
374 3 1  0.000000 82.764900 61.513214 86.260498
375 3 1  0.000000 82.019676 63.398026 85.623764
376 3 1  0.000000 80.845306 64.692459 85.286201
377 3 1  0.000000 80.326447 64.663559 85.842506
378 3 1  0.000000 79.429024 63.052254 86.545769
379 3 1  0.000000 77.741737 63.966972 86.003128
380 3 1  0.000000 77.380722 65.735947 86.658524
381 3 1  0.000000 77.304047 66.776207 85.746399
382 3 1  0.000000 76.897598 67.518517 86.942284
383 3 1  0.000000 76.985123 67.864456 85.714066
384 3 1  0.000000 77.741142 69.429466 86.013054
385 3 1  0.000000 78.128906 70.359573 85.160477
386 3 1  0.000000 79.180328 69.250710 85.689262
387 3 1  0.000000 79.894554 70.884155 85.088531
388 3 1  0.000000 80.997688 69.720421 85.703369
389 3 1  0.000000 82.244705 68.650864 86.463875
390 3 1  0.000000 83.797935 69.461731 85.942894
391 3 1  0.000000 84.967842 68.639137 86.092934
392 3 1  0.000000 85.028069 69.429451 87.853630
393 3 1  0.000000 86.844742 69.758751 87.964966
394 3 1  0.000000 87.331993 70.982216 88.579956
395 3 1  0.000000 87.110725 72.517975 88.705376
396 3 1  0.000000 86.617554 74.046516 90.187035
397 3 1  0.000000 86.750687 74.536308 91.571976
398 3 1  0.000000 84.759041 73.458282 92.432167
399 3 1  0.000000 86.017296 74.278061 92.987930
400 3 1  0.000000 85.334778 75.884781 92.180176
401 4 1  0.000000 92.788887 69.503525 64.516388
402 4 1  0.000000 91.735954 68.449196 64.730240
403 4 1  0.000000 90.912804 69.600021 64.312485
404 4 1  0.000000 90.561684 70.475143 62.676277
405 4 1  0.000000 89.262878 69.951202 63.067745
406 4 1  0.000000 88.219566 68.919151 63.057560
407 4 1  0.000000 87.675026 67.842987 63.243019
408 4 1  0.000000 88.214478 66.988083 62.800953
409 4 1  0.000000 87.596336 65.778008 63.023712
410 4 1  0.000000 86.911873 63.872906 63.711830
411 4 1  0.000000 86.238960 63.886936 65.057785
412 4 1  0.000000 84.873497 63.988735 66.095154
413 4 1  0.000000 84.291214 64.727592 66.911858
414 4 1  0.000000 83.467751 66.380920 67.020660
415 4 1  0.000000 82.311867 66.376152 68.222023
416 4 1  0.000000 81.188423 65.915749 68.912468
417 4 1  0.000000 81.705177 65.175591 70.237137
418 4 1  0.000000 81.817093 66.121773 71.454079
419 4 1  0.000000 83.377724 65.623222 71.601952
420 4 1  0.000000 85.161537 65.441956 71.063194
421 4 1  0.000000 86.011299 64.018600 70.727898
422 4 1  0.000000 84.552330 63.977997 71.617592
423 4 1  0.000000 85.205467 64.432877 73.779037
424 4 1  0.000000 84.776283 63.797657 75.255478
425 4 1  0.000000 83.842705 62.470963 74.562904
426 4 1  0.000000 85.085701 62.282856 75.625450
427 4 1  0.000000 86.508049 62.381779 76.139595
428 4 1  0.000000 88.099945 62.026962 76.453300
429 4 1  0.000000 89.832848 63.439060 75.909241
430 4 1  0.000000 89.726311 64.346451 75.410469
431 4 1  0.000000 90.452583 64.819550 73.658371
432 4 1  0.000000 91.593750 64.607452 73.338051
433 4 1  0.000000 92.593796 63.831612 71.484421
434 4 1  0.000000 92.503647 64.498955 70.301537
435 4 1  0.000000 92.697212 63.151489 69.336121
436 4 1  0.000000 92.728500 62.315117 67.378136
437 4 1  0.000000 93.398872 63.278500 65.860603
438 4 1  0.000000 92.620872 63.354435 64.840683
439 4 1  0.000000 92.072525 63.069904 62.971016
440 4 1  0.000000 92.619301 63.647167 61.613731
441 4 1  0.000000 91.840569 62.716381 60.161575
442 4 1  0.000000 92.542641 61.083363 60.811749
443 4 1  0.000000 91.601265 60.683964 59.578800
444 4 1  0.000000 89.396072 61.142746 59.149952
445 4 1  0.000000 87.914780 61.493343 59.239334
446 4 1  0.000000 86.628372 61.727612 58.512703
447 4 1  0.000000 85.481499 62.146648 59.466125
448 4 1  0.000000 84.479897 62.777721 60.007030
449 4 1  0.000000 82.972466 62.139389 60.773933
450 4 1  0.000000 81.100723 62.989254 60.968868
451 4 1  0.000000 80.608505 61.932392 61.547489
452 4 1  0.000000 79.754631 63.145153 62.422287
453 4 1  0.000000 78.053101 62.682312 62.314251
454 4 1  0.000000 77.124840 63.197964 61.108814
455 4 1  0.000000 76.212097 64.232201 60.465729
456 4 1  0.000000 75.184700 63.314564 60.984779
457 4 1  0.000000 74.641014 64.111816 61.603043
458 4 1  0.000000 74.754997 65.134354 62.740040
459 4 1  0.000000 73.188049 64.524559 62.628899
460 4 1  0.000000 71.795174 64.079254 61.862350
461 4 1  0.000000 70.063034 63.768284 61.145752
462 4 1  0.000000 68.920151 63.896053 60.617836
463 4 1  0.000000 68.944008 62.289322 60.476845
464 4 1  0.000000 67.227859 62.184750 59.995110
465 4 1  0.000000 65.104256 62.137234 60.195724
466 4 1  0.000000 63.374729 63.043758 60.049488
467 4 1  0.000000 63.754314 64.171089 58.792736
468 4 1  0.000000 63.100838 65.420883 58.791153
469 4 1  0.000000 62.476711 65.721130 57.317413
470 4 1  0.000000 61.407635 65.336433 56.487255
471 4 1  0.000000 59.709343 65.986969 57.134480
472 4 1  0.000000 58.002285 66.554108 57.094517
473 4 1  0.000000 57.224766 67.219521 57.819401
474 4 1  0.000000 55.736759 67.185600 56.221680
475 4 1  0.000000 54.434372 67.943085 54.550365
476 4 1  0.000000 55.132557 66.751320 53.635109
477 4 1  0.000000 53.843945 66.751175 52.538605
478 4 1  0.000000 52.868477 67.838455 51.364113
479 4 1  0.000000 51.142700 67.684669 50.684788
480 4 1  0.000000 49.507469 67.885094 49.716839
481 4 1  0.000000 47.653580 69.255257 49.875172
482 4 1  0.000000 45.968567 69.853722 48.821037
483 4 1  0.000000 45.723328 68.849274 47.489193
484 4 1  0.000000 44.086887 69.360481 46.777409
485 4 1  0.000000 43.343544 68.449829 46.284657
486 4 1  0.000000 42.771477 69.618607 45.541046
487 4 1  0.000000 42.900394 71.454369 45.320007
488 4 1  0.000000 43.135647 73.223259 45.171516
489 4 1  0.000000 43.602219 73.525543 46.775822
490 4 1  0.000000 44.797642 73.299553 48.415787
491 4 1  0.000000 44.521770 72.587875 49.795040
492 4 1  0.000000 45.691753 73.266815 49.836136
493 4 1  0.000000 47.380623 72.933380 50.292320
494 4 1  0.000000 48.576466 72.245483 51.018105
495 4 1  0.000000 47.718430 73.725319 50.587460
496 4 1  0.000000 48.178158 75.858574 50.616779
497 4 1  0.000000 48.680443 76.222618 51.941826
498 4 1  0.000000 49.283478 75.602570 53.531277
499 4 1  0.000000 49.578289 75.305519 54.847500
500 4 1  0.000000 48.554420 75.318932 55.900658
501 5 1  0.000000 85.194313 72.782570 63.807209
502 5 1  0.000000 84.540314 73.921417 63.099548
503 5 1  0.000000 84.696854 75.457657 63.996445
504 5 1  0.000000 86.001244 76.439041 63.870590
505 5 1  0.000000 87.002388 76.682663 62.818001
506 5 1  0.000000 87.991898 77.678940 61.699387
507 5 1  0.000000 89.784737 76.943474 62.338593
508 5 1  0.000000 90.861259 77.504799 63.228928
509 5 1  0.000000 91.353447 78.996223 62.635143
510 5 1  0.000000 92.406532 78.941444 64.057861
511 5 1  0.000000 93.996826 79.304527 63.350670
512 5 1  0.000000 94.805229 80.909576 64.077065
513 5 1  0.000000 94.870560 82.541756 62.791065
514 5 1  0.000000 93.576729 83.764572 63.211403
515 5 1  0.000000 92.276581 83.686157 63.065601
516 5 1  0.000000 90.917801 82.968979 63.950760
517 5 1  0.000000 89.474640 83.524063 64.685814
518 5 1  0.000000 87.799965 83.825966 64.739761
519 5 1  0.000000 88.122711 83.563019 66.308594
520 5 1  0.000000 88.807137 83.142387 67.780563
521 5 1  0.000000 87.660614 82.675346 67.936798
522 5 1  0.000000 88.902382 81.244949 68.843475
523 5 1  0.000000 90.882004 81.694290 69.540756
524 5 1  0.000000 92.211731 81.328918 68.847755
525 5 1  0.000000 93.671692 81.222839 68.104507
526 5 1  0.000000 94.569511 82.120895 69.277077
527 5 1  0.000000 94.438667 82.929192 69.897232
528 5 1  0.000000 94.501511 84.431847 69.235733
529 5 1  0.000000 95.287605 86.273849 69.841522
530 5 1  0.000000 93.659622 86.365997 71.345070
531 5 1  0.000000 93.656219 85.665527 72.723938
532 5 1  0.000000 94.222527 85.297333 74.364044
533 5 1  0.000000 94.154320 83.362129 74.120018
534 5 1  0.000000 92.816551 82.636086 74.619354
535 5 1  0.000000 91.776100 81.818352 74.286392
536 5 1  0.000000 91.920288 82.680687 75.723122
537 5 1  0.000000 91.086166 83.389145 76.113319
538 5 1  0.000000 90.076225 82.935425 77.006973
539 5 1  0.000000 89.644272 83.040276 78.050995
540 5 1  0.000000 88.686928 83.650749 78.995148
541 5 1  0.000000 88.296715 83.105179 80.641922
542 5 1  0.000000 86.913383 82.522392 79.646774
543 5 1  0.000000 87.618401 81.734207 80.362442
544 5 1  0.000000 86.444046 80.651382 80.556862
545 5 1  0.000000 84.998558 80.446129 80.025993
546 5 1  0.000000 83.200020 80.738441 79.904060
547 5 1  0.000000 82.026436 80.167656 80.751411
548 5 1  0.000000 81.737122 81.140152 79.147591
549 5 1  0.000000 80.286278 81.408318 79.584396
550 5 1  0.000000 78.593796 82.285332 80.314255
551 5 1  0.000000 77.551903 82.345512 79.944954
552 5 1  0.000000 77.046562 81.972672 81.799866
553 5 1  0.000000 77.203987 83.818077 81.811165
554 5 1  0.000000 76.137520 83.904274 82.934494
555 5 1  0.000000 74.544289 83.565536 82.332741
556 5 1  0.000000 75.389381 84.999290 81.480873
557 5 1  0.000000 73.713593 85.990097 81.141518
558 5 1  0.000000 72.409767 86.739708 82.604248
559 5 1  0.000000 71.383476 86.172920 83.793198
560 5 1  0.000000 69.473877 86.082382 84.103264
561 5 1  0.000000 69.663811 87.480507 83.906609
562 5 1  0.000000 68.082054 86.699997 84.322395
563 5 1  0.000000 66.839912 87.369766 84.481705
564 5 1  0.000000 65.202477 87.874466 85.538193
565 5 1  0.000000 64.768066 87.331322 87.236359
566 5 1  0.000000 64.287483 87.594170 88.841637
567 5 1  0.000000 62.929256 88.183937 88.685448
568 5 1  0.000000 61.977005 87.993317 90.568398
569 5 1  0.000000 62.620522 88.101601 91.852821
570 5 1  0.000000 61.208244 89.012695 92.495865
571 5 1  0.000000 59.187447 90.412094 92.696228
572 5 1  0.000000 58.046093 91.196922 93.387367
573 5 1  0.000000 57.079861 90.173576 93.787270
574 5 1  0.000000 56.034431 90.613518 92.619888
575 5 1  0.000000 55.214741 90.040298 91.323402
576 5 1  0.000000 53.570599 89.757561 91.813118
577 5 1  0.000000 53.466263 91.258141 92.361168
578 5 1  0.000000 51.667545 91.430412 92.447105
579 5 1  0.000000 50.361515 91.534790 92.455139
580 5 1  0.000000 48.669846 90.402115 92.789101
581 5 1  0.000000 49.634880 91.429352 93.679405
582 5 1  0.000000 48.348526 90.280388 93.656494
583 5 1  0.000000 47.537735 90.757736 95.434616
584 5 1  0.000000 46.274216 91.330681 94.680725
585 5 1  0.000000 45.104782 90.613571 93.607124
586 5 1  0.000000 45.050648 92.130539 92.944984
587 5 1  0.000000 45.404835 93.107040 93.725571
588 5 1  0.000000 44.293312 93.341873 92.168800
589 5 1  0.000000 45.306210 95.037712 92.980995
590 5 1  0.000000 45.299099 96.815132 93.980835
591 5 1  0.000000 47.503803 97.186760 94.124901
592 5 1  0.000000 47.827160 96.933525 95.558434
593 5 1  0.000000 49.024174 96.065666 94.815643
594 5 1  0.000000 49.762123 96.685722 95.864830
595 5 1  0.000000 50.301708 97.309975 97.437630
596 5 1  0.000000 50.586861 95.514755 97.514473
597 5 1  0.000000 49.738655 94.356468 98.171852
598 5 1  0.000000 51.093300 94.022095 98.456642
599 5 1  0.000000 50.556969 92.390091 97.754738
600 5 1  0.000000 48.994110 92.920860 98.369537
601 6 1  0.000000 88.274475 101.125244 63.883209
602 6 1  0.000000 90.094383 101.769638 63.686367
603 6 1  0.000000 89.519379 101.052315 64.326614
604 6 1  0.000000 89.949600 101.451996 65.837700
605 6 1  0.000000 90.159439 101.723824 67.096092
606 6 1  0.000000 89.576988 103.574722 67.360687
607 6 1  0.000000 87.792366 103.959808 67.567223
608 6 1  0.000000 86.659363 102.588379 67.917511
609 6 1  0.000000 84.989525 103.112755 67.576851
610 6 1  0.000000 84.006294 102.436028 68.697975
611 6 1  0.000000 83.829636 101.677490 67.630875
612 6 1  0.000000 83.618843 101.087357 68.871803
613 6 1  0.000000 83.016869 98.722153 68.220703
614 6 1  0.000000 84.063370 97.818832 67.962532
615 6 1  0.000000 84.499046 96.617928 67.165581
616 6 1  0.000000 83.670998 96.125282 65.478951