Created with TaichiMD

1000 atoms
990 bonds
  0 angles
  0 dihedrals
  0 impropers

1 atom types
1 bond types
0 angle types
0 dihedral types
0 improper types

-80.00000  80.00000 xlo xhi
-80.00000  80.00000 ylo yhi
-80.00000  80.00000 zlo zhi

Masses

1 10.0000

Atoms

  1 0 1  0.000000 132.478989 -3.622793 101.479515
  2 0 1  0.000000 131.007431 -4.202785 100.546875
  3 0 1  0.000000 129.406631 -4.257800 100.904533
  4 0 1  0.000000 128.438141 -3.532705 99.655182
  5 0 1  0.000000 126.958984 -2.628908 100.080147
  6 0 1  0.000000 126.115021 -3.609566 99.092041
  7 0 1  0.000000 124.609894 -4.191961 98.219315
  8 0 1  0.000000 123.827332 -2.700517 97.822281
  9 0 1  0.000000 122.655396 -2.892460 98.439629
 10 0 1  0.000000 121.566170 -2.213800 97.181282
 11 0 1  0.000000 120.211731 -1.884453 97.491806
 12 0 1  0.000000 119.801636 -0.404501 97.471573
 13 0 1  0.000000 119.839371 -0.092587 95.969620
 14 0 1  0.000000 118.014366  0.189717 94.935913
 15 0 1  0.000000 116.660225  0.143722 95.155327
 16 0 1  0.000000 115.629387  1.167773 95.051689
 17 0 1  0.000000 116.103584 -0.123030 94.673492
 18 0 1  0.000000 114.420448 -0.056855 95.267174
 19 0 1  0.000000 113.368759 -0.585378 93.419174
 20 0 1  0.000000 111.818367  0.401363 93.763695
 21 0 1  0.000000 110.247559  1.887440 93.968445
 22 0 1  0.000000 111.300659  3.515033 94.225540
 23 0 1  0.000000 110.477997  4.548578 94.380028
 24 0 1  0.000000 109.168167  4.157085 96.840660
 25 0 1  0.000000 107.709778  5.284219 97.702354
 26 0 1  0.000000 107.155373  5.380401 99.316368
 27 0 1  0.000000 106.836304  6.781550 98.360565
 28 0 1  0.000000 105.230576  7.361178 99.325516
 29 0 1  0.000000 103.749603  8.034127 98.592323
 30 0 1  0.000000 103.768799  9.293357 97.708382
 31 0 1  0.000000 104.265419 10.066036 99.368515
 32 0 1  0.000000 103.752678 11.299928 100.415558
 33 0 1  0.000000 102.800179 12.159881 100.330368
 34 0 1  0.000000 101.983192 12.060843 98.848618
 35 0 1  0.000000 101.587097 13.765304 99.413460
 36 0 1  0.000000 100.442734 13.012254 99.506622
 37 0 1  0.000000 98.733765 13.780160 98.605270
 38 0 1  0.000000 97.681602 13.631880 99.659241
 39 0 1  0.000000 96.454483 14.290525 99.412834
 40 0 1  0.000000 95.633720 13.650926 100.833313
 41 0 1  0.000000 94.171677 13.830392 102.108093
 42 0 1  0.000000 93.828964 15.322142 101.425407
 43 0 1  0.000000 91.952614 15.638555 100.454727
 44 0 1  0.000000 90.501534 16.100037 100.450211
 45 0 1  0.000000 90.016411 17.781872 99.529495
 46 0 1  0.000000 88.187737 17.130037 99.473785
 47 0 1  0.000000 87.618164 16.855930 98.519836
 48 0 1  0.000000 85.303490 16.497471 99.007423
 49 0 1  0.000000 84.831589 16.440029 96.965416
 50 0 1  0.000000 84.197731 15.038096 96.271309
 51 0 1  0.000000 84.732285 14.118703 95.296608
 52 0 1  0.000000 83.174042 13.102387 95.951599
 53 0 1  0.000000 81.665886 13.728696 96.413727
 54 0 1  0.000000 80.402809 14.414701 97.747299
 55 0 1  0.000000 79.058777 14.396253 98.138260
 56 0 1  0.000000 77.884628 14.849839 97.155693
 57 0 1  0.000000 77.129272 16.031158 96.493248
 58 0 1  0.000000 75.979523 16.056843 95.985069
 59 0 1  0.000000 74.538712 16.043545 96.722649
 60 0 1  0.000000 73.174042 16.693537 96.803604
 61 0 1  0.000000 71.950577 16.628780 97.512390
 62 0 1  0.000000 70.060059 17.753136 97.171753
 63 0 1  0.000000 68.667740 18.926561 96.421295
 64 0 1  0.000000 67.530983 18.966879 96.059708
 65 0 1  0.000000 65.978012 18.495205 96.684189
 66 0 1  0.000000 66.033600 19.935844 97.462776
 67 0 1  0.000000 64.501701 19.783253 99.113068
 68 0 1  0.000000 62.907436 19.555521 100.755630
 69 0 1  0.000000 61.531609 20.812510 101.306908
 70 0 1  0.000000 60.580795 21.514481 102.354301
 71 0 1  0.000000 59.010201 22.617764 101.970497
 72 0 1  0.000000 57.911045 23.599878 103.027809
 73 0 1  0.000000 57.697006 25.615290 104.274445
 74 0 1  0.000000 55.963673 25.795506 103.705231
 75 0 1  0.000000 54.824081 27.020958 102.738007
 76 0 1  0.000000 56.070328 27.660795 102.912117
 77 0 1  0.000000 54.832611 29.026440 102.323692
 78 0 1  0.000000 54.957405 30.520706 102.203804
 79 0 1  0.000000 53.769199 31.223648 101.317154
 80 0 1  0.000000 54.247391 32.227196 102.972809
 81 0 1  0.000000 52.884182 32.726093 104.250954
 82 0 1  0.000000 52.341743 31.703102 104.351074
 83 0 1  0.000000 51.993835 30.753944 105.129478
 84 0 1  0.000000 50.104420 30.533445 105.096680
 85 0 1  0.000000 49.852486 30.304491 106.908653
 86 0 1  0.000000 47.702621 29.773033 106.681587
 87 0 1  0.000000 47.697163 28.987417 107.734123
 88 0 1  0.000000 47.076485 30.263500 107.389374
 89 0 1  0.000000 46.117355 29.054533 108.632942
 90 0 1  0.000000 44.056503 28.191626 108.580170
 91 0 1  0.000000 43.075439 27.408098 109.335518
 92 0 1  0.000000 41.473812 27.464935 109.000435
 93 0 1  0.000000 40.652088 26.566069 109.571709
 94 0 1  0.000000 38.558079 26.423054 109.297646
 95 0 1  0.000000 36.870319 26.160456 110.033112
 96 0 1  0.000000 35.372536 25.843332 110.999428
 97 0 1  0.000000 33.378124 25.945490 111.250046
 98 0 1  0.000000 33.266212 26.965757 110.158020
 99 0 1  0.000000 33.155586 28.651577 109.291016
100 0 1  0.000000 33.464050 28.529612 108.326225
101 1 1  0.000000 142.700485 31.312698 100.282303
102 1 1  0.000000 143.233871 29.620749 99.529121
103 1 1  0.000000 142.210602 31.004490 98.409622
104 1 1  0.000000 140.931000 30.060905 98.359283
105 1 1  0.000000 139.329391 30.063690 97.910553
106 1 1  0.000000 137.726105 29.777390 97.426498
107 1 1  0.000000 135.842056 30.147913 97.533905
108 1 1  0.000000 134.949814 30.785721 97.387535
109 1 1  0.000000 135.078049 31.838020 96.864532
110 1 1  0.000000 133.331329 31.610706 97.360695
111 1 1  0.000000 132.035416 32.836090 98.246681
112 1 1  0.000000 132.651901 33.761642 96.942833
113 1 1  0.000000 131.934525 34.552887 98.207664
114 1 1  0.000000 130.624573 35.594795 98.813797
115 1 1  0.000000 130.363510 36.360771 97.383987
116 1 1  0.000000 130.560104 37.798866 97.294258
117 1 1  0.000000 128.810104 38.195576 96.968521
118 1 1  0.000000 128.228119 39.298737 97.153931
119 1 1  0.000000 126.847397 38.212318 96.704880
120 1 1  0.000000 125.204323 38.195164 98.009193
121 1 1  0.000000 123.644791 39.073467 97.262924
122 1 1  0.000000 122.473915 37.983051 97.486824
123 1 1  0.000000 121.193962 36.356434 97.678261
124 1 1  0.000000 120.055817 36.997643 96.375084
125 1 1  0.000000 121.141228 36.620388 94.831932
126 1 1  0.000000 119.577019 36.023567 93.910500
127 1 1  0.000000 118.728218 34.834599 93.703163
128 1 1  0.000000 118.044930 36.234867 93.446098
129 1 1  0.000000 117.238701 34.678604 93.887741
130 1 1  0.000000 115.499565 35.719124 93.418427
131 1 1  0.000000 114.278152 35.786724 93.989510
132 1 1  0.000000 113.537460 35.542267 92.705124
133 1 1  0.000000 111.731133 34.527412 92.113571
134 1 1  0.000000 110.331062 35.134418 90.915344
135 1 1  0.000000 109.012871 34.588390 91.124397
136 1 1  0.000000 108.047684 33.964275 91.560669
137 1 1  0.000000 106.436188 33.733116 90.958176
138 1 1  0.000000 106.363953 34.930058 89.468697
139 1 1  0.000000 104.666023 36.131241 89.938148
140 1 1  0.000000 102.608849 35.661537 89.410606
141 1 1  0.000000 101.305946 35.349075 88.829140
142 1 1  0.000000 99.979500 35.593452 88.290848
143 1 1  0.000000 98.518463 36.687195 87.586334
144 1 1  0.000000 96.855484 36.587181 87.010185
145 1 1  0.000000 95.386475 36.271854 86.327187
146 1 1  0.000000 95.275597 35.652676 85.151672
147 1 1  0.000000 94.935097 36.014210 83.927643
148 1 1  0.000000 92.961807 36.195187 84.178215
149 1 1  0.000000 91.838280 35.680088 83.189102
150 1 1  0.000000 91.218765 35.154133 81.209770
151 1 1  0.000000 90.185883 34.643578 81.341652
152 1 1  0.000000 89.184082 35.173351 83.326576
153 1 1  0.000000 87.704720 36.433189 82.634857
154 1 1  0.000000 86.384933 36.026661 81.482887
155 1 1  0.000000 84.577156 36.808025 82.549026
156 1 1  0.000000 83.630287 37.705486 83.385605
157 1 1  0.000000 83.805260 36.368637 82.301010
158 1 1  0.000000 82.834236 35.553291 82.096184
159 1 1  0.000000 80.712578 35.664589 81.935387
160 1 1  0.000000 79.716705 36.317955 83.509361
161 1 1  0.000000 78.325356 37.654617 83.838509
162 1 1  0.000000 77.539177 37.968014 82.716148
163 1 1  0.000000 75.485428 37.672546 82.401100
164 1 1  0.000000 73.606682 37.339005 81.601349
165 1 1  0.000000 72.773132 35.433773 81.310570
166 1 1  0.000000 71.471375 36.483318 81.790611
167 1 1  0.000000 69.790100 36.978146 81.776459
168 1 1  0.000000 70.790451 36.819824 83.305176
169 1 1  0.000000 69.501198 37.535538 83.787514
170 1 1  0.000000 67.791245 37.915947 83.487251
171 1 1  0.000000 66.867950 37.900978 84.455170
172 1 1  0.000000 65.346497 38.530571 85.281265
173 1 1  0.000000 63.400616 38.852062 84.428139
174 1 1  0.000000 62.131172 39.005886 83.054718
175 1 1  0.000000 61.531685 38.915436 81.945473
176 1 1  0.000000 61.821529 40.431862 80.976173
177 1 1  0.000000 60.557587 41.553108 81.373253
178 1 1  0.000000 58.957726 41.573055 81.603157
179 1 1  0.000000 57.576439 41.057724 82.944527
180 1 1  0.000000 56.369320 40.495522 83.427429
181 1 1  0.000000 55.253296 41.659145 83.405128
182 1 1  0.000000 53.565510 41.950188 83.669533
183 1 1  0.000000 52.885059 42.848732 81.900192
184 1 1  0.000000 52.445751 42.964119 80.144829
185 1 1  0.000000 50.913433 43.078876 79.146606
186 1 1  0.000000 49.388725 42.665150 78.809433
187 1 1  0.000000 47.687843 41.882122 80.046158
188 1 1  0.000000 46.251076 42.136372 81.358231
189 1 1  0.000000 44.180004 42.127010 82.252060
190 1 1  0.000000 43.047138 42.123577 84.103218
191 1 1  0.000000 41.998436 40.591259 83.355797
192 1 1  0.000000 41.181248 40.649578 84.615723
193 1 1  0.000000 40.235107 41.306969 85.475067
194 1 1  0.000000 39.404121 41.642807 86.915543
195 1 1  0.000000 38.396667 40.966053 88.043213
196 1 1  0.000000 37.861275 41.088764 89.425224
197 1 1  0.000000 36.516407 39.695820 89.742416
198 1 1  0.000000 37.049885 39.908165 91.303162
199 1 1  0.000000 35.353535 41.117165 90.761642
200 1 1  0.000000 34.587780 40.790829 92.009895
201 2 1  0.000000 113.052071 61.816803 43.350441
202 2 1  0.000000 113.071198 60.495056 44.500317
203 2 1  0.000000 114.053062 60.052193 42.715111
204 2 1  0.000000 114.432922 60.286804 41.116074
205 2 1  0.000000 114.716835 60.405090 40.008324
206 2 1  0.000000 114.894218 59.322372 38.499851
207 2 1  0.000000 115.484039 58.060398 37.502510
208 2 1  0.000000 116.691185 57.200748 38.327824
209 2 1  0.000000 118.309296 58.138962 38.951374
210 2 1  0.000000 118.945564 57.978638 40.938942
211 2 1  0.000000 117.544380 58.121559 42.575451
212 2 1  0.000000 116.639641 58.528656 43.667110
213 2 1  0.000000 117.441460 58.721348 44.584999
214 2 1  0.000000 116.364632 57.477871 43.887787
215 2 1  0.000000 115.958633 55.720222 44.597939
216 2 1  0.000000 114.341095 55.801414 44.648827
217 2 1  0.000000 114.982201 56.312847 45.002125
218 2 1  0.000000 112.739136 55.778786 44.950603
219 2 1  0.000000 111.331703 54.327858 44.705780
220 2 1  0.000000 111.127083 54.183506 46.629570
221 2 1  0.000000 109.342041 54.423672 46.515659
222 2 1  0.000000 109.511993 56.236900 47.251900
223 2 1  0.000000 108.142403 54.785938 46.892529
224 2 1  0.000000 107.017570 53.564571 47.716782
225 2 1  0.000000 104.707825 53.868702 48.675755
226 2 1  0.000000 105.058815 53.762234 50.081253
227 2 1  0.000000 103.552597 54.116180 50.633308
228 2 1  0.000000 102.039749 53.063324 50.560699
229 2 1  0.000000 100.470528 53.311485 50.631268
230 2 1  0.000000 99.139732 52.318146 51.479290
231 2 1  0.000000 99.241745 51.236382 52.106544
232 2 1  0.000000 98.891220 50.169346 53.649723
233 2 1  0.000000 97.487259 48.943718 54.142597
234 2 1  0.000000 95.702003 48.568436 56.201004
235 2 1  0.000000 95.220123 50.057713 55.064354
236 2 1  0.000000 95.069046 48.825878 55.754749
237 2 1  0.000000 94.040451 48.142361 55.638062
238 2 1  0.000000 91.905342 47.905655 56.343163
239 2 1  0.000000 90.828430 48.015526 57.479794
240 2 1  0.000000 89.371841 46.737198 58.135509
241 2 1  0.000000 89.760002 47.178970 60.260902
242 2 1  0.000000 88.678429 46.924816 61.554585
243 2 1  0.000000 86.751205 46.214436 61.785297
244 2 1  0.000000 85.472404 46.214317 62.896603
245 2 1  0.000000 85.396584 46.896736 64.474869
246 2 1  0.000000 84.303093 48.499763 64.201439
247 2 1  0.000000 82.831886 49.857792 64.219299
248 2 1  0.000000 81.312439 50.366741 65.081001
249 2 1  0.000000 79.483917 50.519642 64.816505
250 2 1  0.000000 78.905716 52.331673 65.423615
251 2 1  0.000000 78.467064 53.192284 64.217781
252 2 1  0.000000 76.740013 53.141479 64.842400
253 2 1  0.000000 74.682266 53.395611 65.033516
254 2 1  0.000000 73.432365 55.418282 64.416748
255 2 1  0.000000 72.174736 55.351509 63.409885
256 2 1  0.000000 71.106125 55.712784 62.515682
257 2 1  0.000000 69.637566 56.000431 62.460602
258 2 1  0.000000 68.527390 56.608452 63.500465
259 2 1  0.000000 67.227592 56.071758 63.529919
260 2 1  0.000000 67.299194 56.689926 64.458038
261 2 1  0.000000 67.597946 58.446255 64.557571
262 2 1  0.000000 67.614250 59.752842 64.206421
263 2 1  0.000000 66.538315 59.653549 65.368217
264 2 1  0.000000 65.300545 59.812107 65.100777
265 2 1  0.000000 65.326744 60.824356 63.849319
266 2 1  0.000000 64.080841 61.926868 64.906105
267 2 1  0.000000 63.435997 61.710342 66.696526
268 2 1  0.000000 61.672997 60.967682 67.672249
269 2 1  0.000000 60.093330 60.843521 67.530121
270 2 1  0.000000 58.778656 60.966488 68.258751
271 2 1  0.000000 57.340290 60.599880 68.663109
272 2 1  0.000000 56.349106 59.548935 70.315605
273 2 1  0.000000 54.674366 60.572838 70.079224
274 2 1  0.000000 54.758690 61.561626 71.027397
275 2 1  0.000000 53.582550 62.074490 71.258194
276 2 1  0.000000 52.836922 61.114395 72.667137
277 2 1  0.000000 51.425354 61.820671 72.392601
278 2 1  0.000000 49.793327 62.196854 72.820091
279 2 1  0.000000 48.188026 63.378239 73.014275
280 2 1  0.000000 47.662724 61.985905 73.842316
281 2 1  0.000000 45.826946 61.384083 74.290764
282 2 1  0.000000 44.043228 60.783405 74.652901
283 2 1  0.000000 43.535683 62.327068 75.665352
284 2 1  0.000000 42.245579 62.716309 76.008141
285 2 1  0.000000 41.579887 64.346024 76.100449
286 2 1  0.000000 41.227482 63.738132 74.903191
287 2 1  0.000000 39.924866 63.446468 76.212410
288 2 1  0.000000 38.452820 63.819309 76.031189
289 2 1  0.000000 36.612019 64.086220 75.706123
290 2 1  0.000000 33.821800 64.454277 75.945824
291 2 1  0.000000 31.963127 64.352272 75.618195
292 2 1  0.000000 29.712856 64.719566 74.354233
293 2 1  0.000000 28.572910 63.222076 74.428696
294 2 1  0.000000 27.984543 61.465054 73.868813
295 2 1  0.000000 26.270628 60.532173 72.821228
296 2 1  0.000000 25.750704 59.145355 72.846024
297 2 1  0.000000 25.311235 57.356945 72.606995
298 2 1  0.000000 24.412262 55.910873 72.743690
299 2 1  0.000000 24.352427 55.590641 73.925858
300 2 1  0.000000 23.736542 54.323997 73.824928
301 3 1  0.000000 108.763435 72.397011 108.799187
302 3 1  0.000000 108.378166 70.983177 109.359703
303 3 1  0.000000 107.486359 69.569328 110.081703
304 3 1  0.000000 108.612946 69.708450 109.821381
305 3 1  0.000000 109.962868 70.093079 111.111015
306 3 1  0.000000 109.922279 68.461899 112.106064
307 3 1  0.000000 111.007233 67.761444 112.944435
308 3 1  0.000000 110.196091 66.777412 113.401497
309 3 1  0.000000 110.601257 65.470825 113.611229
310 3 1  0.000000 109.649231 64.621178 112.465958
311 3 1  0.000000 109.798088 63.749195 111.587379
312 3 1  0.000000 109.482086 62.439022 111.530937
313 3 1  0.000000 108.263115 62.455891 110.274864
314 3 1  0.000000 110.241631 61.710449 110.045219
315 3 1  0.000000 110.432343 60.310749 110.472847
316 3 1  0.000000 112.023262 60.227695 110.821526
317 3 1  0.000000 112.514893 59.537632 112.012108
318 3 1  0.000000 112.018867 61.101315 112.729790
319 3 1  0.000000 113.186424 61.301052 114.170982
320 3 1  0.000000 111.841217 61.750511 115.081589
321 3 1  0.000000 112.285103 60.309883 116.058022
322 3 1  0.000000 112.390373 59.394974 116.670586
323 3 1  0.000000 113.306290 58.393417 115.469330
324 3 1  0.000000 112.475075 57.614731 117.202682
325 3 1  0.000000 110.429909 57.114967 116.337418
326 3 1  0.000000 110.555061 55.785271 115.683731
327 3 1  0.000000 110.225227 56.397072 116.506348
328 3 1  0.000000 109.697388 56.798519 117.578156
329 3 1  0.000000 107.309471 56.371918 117.558434
330 3 1  0.000000 106.991112 56.121422 116.079590
331 3 1  0.000000 107.140686 56.929630 114.090706
332 3 1  0.000000 107.076805 55.745312 113.314674
333 3 1  0.000000 105.618904 56.929241 112.761070
334 3 1  0.000000 104.554962 57.716702 112.931023
335 3 1  0.000000 103.197639 58.797108 112.250824
336 3 1  0.000000 102.957657 59.564407 113.074265
337 3 1  0.000000 101.773209 59.297333 112.237221
338 3 1  0.000000 100.048279 59.933697 112.490646
339 3 1  0.000000 99.455627 59.866653 110.972351
340 3 1  0.000000 98.887978 60.392101 112.687744
341 3 1  0.000000 98.777161 59.772728 110.980995
342 3 1  0.000000 98.068382 57.878906 111.287140
343 3 1  0.000000 96.649956 57.653053 111.549606
344 3 1  0.000000 94.912987 58.190224 111.005814
345 3 1  0.000000 94.167053 58.078018 109.298370
346 3 1  0.000000 94.017525 58.621452 110.954163
347 3 1  0.000000 93.399132 58.651436 109.593422
348 3 1  0.000000 92.424942 58.295650 108.114517
349 3 1  0.000000 90.411858 57.812035 108.353661
350 3 1  0.000000 90.356758 59.649364 108.180840
351 3 1  0.000000 90.310532 60.223450 106.248871
352 3 1  0.000000 88.650551 59.649620 106.571861
353 3 1  0.000000 87.736649 59.728802 105.136826
354 3 1  0.000000 86.739723 59.671677 103.527634
355 3 1  0.000000 85.477531 58.917896 102.895752
356 3 1  0.000000 84.461632 59.368164 101.202133
357 3 1  0.000000 83.413925 58.886074 100.809074
358 3 1  0.000000 83.387085 58.882847 99.313339
359 3 1  0.000000 83.264938 58.960999 98.241638
360 3 1  0.000000 81.809738 59.230701 98.417137
361 3 1  0.000000 81.134224 59.229000 96.755066
362 3 1  0.000000 81.089073 57.616135 95.326164
363 3 1  0.000000 80.577896 56.037220 94.091965
364 3 1  0.000000 80.273590 55.835037 95.500404
365 3 1  0.000000 79.701195 54.637764 96.507774
366 3 1  0.000000 78.504158 53.752022 96.973969
367 3 1  0.000000 77.146179 54.232407 96.638176
368 3 1  0.000000 76.596306 54.087093 95.175407
369 3 1  0.000000 77.487549 54.554031 93.457413
370 3 1  0.000000 76.226395 55.456348 92.528725
371 3 1  0.000000 76.494026 56.819553 91.935158
372 3 1  0.000000 76.448883 57.864399 91.447128
373 3 1  0.000000 77.172760 58.364140 91.935081
374 3 1  0.000000 79.248970 60.057926 91.776024
375 3 1  0.000000 79.047302 61.495014 92.192558
376 3 1  0.000000 78.301552 62.749363 91.267868
377 3 1  0.000000 79.984985 63.424252 92.069374
378 3 1  0.000000 79.747032 63.994457 93.505104
379 3 1  0.000000 80.186668 65.350487 94.243469
380 3 1  0.000000 80.172455 66.865112 94.365448
381 3 1  0.000000 79.463326 67.840683 93.563843
382 3 1  0.000000 79.713974 68.577888 92.324692
383 3 1  0.000000 78.331947 68.200630 90.930428
384 3 1  0.000000 78.154175 69.957664 92.242882
385 3 1  0.000000 77.132675 69.073311 91.297226
386 3 1  0.000000 77.938469 70.793427 91.515091
387 3 1  0.000000 78.542809 71.170090 89.926888
388 3 1  0.000000 77.955208 72.234886 88.526955
389 3 1  0.000000 76.727104 73.068794 89.566704
390 3 1  0.000000 76.586945 73.976814 88.252869
391 3 1  0.000000 76.508560 74.351944 87.083855
392 3 1  0.000000 75.856567 72.683640 86.491890
393 3 1  0.000000 75.128464 71.156563 85.604294
394 3 1  0.000000 73.453400 71.825356 85.583580
395 3 1  0.000000 73.197113 73.049553 84.248093
396 3 1  0.000000 72.255150 74.511719 82.766220
397 3 1  0.000000 70.889610 75.025635 82.348816
398 3 1  0.000000 70.868813 73.302628 82.909897
399 3 1  0.000000 70.539574 75.014572 82.576111
400 3 1  0.000000 69.297470 74.288269 81.770775
401 4 1  0.000000 89.859344 69.843742 57.740753
402 4 1  0.000000 90.379555 70.891495 58.246387
403 4 1  0.000000 91.424286 70.515282 57.354301
404 4 1  0.000000 92.682518 69.556763 57.815678
405 4 1  0.000000 93.882881 68.915573 57.496555
406 4 1  0.000000 94.937630 67.999001 59.080910
407 4 1  0.000000 96.314201 67.441788 59.229538
408 4 1  0.000000 95.591927 68.471672 60.709995
409 4 1  0.000000 96.387123 67.483292 61.761055
410 4 1  0.000000 96.894920 67.025055 63.101086
411 4 1  0.000000 97.940193 66.244576 63.523392
412 4 1  0.000000 97.322105 67.511337 64.543793
413 4 1  0.000000 97.013031 68.102364 66.313728
414 4 1  0.000000 98.567284 67.893257 67.096733
415 4 1  0.000000 99.592125 66.573517 66.340012
416 4 1  0.000000 100.628548 67.736862 64.857193
417 4 1  0.000000 101.283333 68.868324 63.930309
418 4 1  0.000000 102.842010 68.200989 63.807629
419 4 1  0.000000 103.686844 68.844307 62.632011
420 4 1  0.000000 105.165222 69.791862 61.760315
421 4 1  0.000000 105.747337 68.274338 60.824986
422 4 1  0.000000 105.957161 66.711128 61.060997
423 4 1  0.000000 105.721428 64.919411 60.950592
424 4 1  0.000000 103.910110 64.455811 61.605633
425 4 1  0.000000 103.014557 63.103218 61.468391
426 4 1  0.000000 102.678513 61.833256 61.291138
427 4 1  0.000000 101.361748 61.041882 60.148590
428 4 1  0.000000 99.517433 60.936489 59.473682
429 4 1  0.000000 97.700653 60.826191 58.894966
430 4 1  0.000000 95.983337 60.217228 58.651661
431 4 1  0.000000 93.733414 60.689148 58.614315
432 4 1  0.000000 92.717545 61.410889 59.389313
433 4 1  0.000000 91.657387 60.593170 59.287724
434 4 1  0.000000 91.478905 61.371727 60.030552
435 4 1  0.000000 89.592865 61.831802 59.301777
436 4 1  0.000000 88.981537 61.027264 58.233582
437 4 1  0.000000 87.717232 60.684387 58.912601
438 4 1  0.000000 87.323822 60.779106 57.025032
439 4 1  0.000000 85.403046 60.229816 57.146072
440 4 1  0.000000 83.794556 58.826408 56.448109
441 4 1  0.000000 83.613716 57.074635 56.994812
442 4 1  0.000000 82.343010 58.891846 57.237743
443 4 1  0.000000 80.604561 58.948902 56.929352
444 4 1  0.000000 79.613426 59.488327 57.177330
445 4 1  0.000000 78.401451 60.484188 57.089535
446 4 1  0.000000 78.124229 59.717396 56.283283
447 4 1  0.000000 78.290039 59.950066 54.305996
448 4 1  0.000000 77.138962 61.071980 54.799969
449 4 1  0.000000 75.328697 60.604832 54.486141
450 4 1  0.000000 73.940041 61.133480 53.388618
451 4 1  0.000000 72.957817 60.497833 51.699665
452 4 1  0.000000 71.863510 60.083019 50.497128
453 4 1  0.000000 71.459259 58.601971 50.728107
454 4 1  0.000000 70.516792 59.449074 50.670849
455 4 1  0.000000 69.317307 58.435848 49.578106
456 4 1  0.000000 67.866287 58.354004 49.380493
457 4 1  0.000000 68.238892 56.984985 48.343616
458 4 1  0.000000 66.676407 57.131092 49.260658
459 4 1  0.000000 65.932465 58.347820 50.316551
460 4 1  0.000000 64.772568 59.331345 49.563286
461 4 1  0.000000 64.780701 59.582169 48.114124
462 4 1  0.000000 63.553635 58.342808 47.486435
463 4 1  0.000000 62.742558 57.347633 46.834667
464 4 1  0.000000 61.190350 58.361778 47.832146
465 4 1  0.000000 60.651127 59.541168 48.837578
466 4 1  0.000000 59.888134 60.598343 48.925316
467 4 1  0.000000 58.367432 60.272709 48.260826
468 4 1  0.000000 56.935459 60.564369 48.466156
469 4 1  0.000000 56.202908 62.227562 47.702236
470 4 1  0.000000 54.801266 62.053539 46.515644
471 4 1  0.000000 53.064266 62.103626 46.985043
472 4 1  0.000000 52.607227 63.200436 47.926762
473 4 1  0.000000 51.388176 63.008492 47.251186
474 4 1  0.000000 50.471786 64.340645 48.203342
475 4 1  0.000000 50.099487 64.748924 46.955833
476 4 1  0.000000 48.902660 66.065536 47.657986
477 4 1  0.000000 47.874119 64.798653 47.175079
478 4 1  0.000000 46.556667 65.493462 47.920223
479 4 1  0.000000 45.206264 65.851883 47.186764
480 4 1  0.000000 44.257668 64.792564 47.049210
481 4 1  0.000000 42.518024 65.404839 48.273254
482 4 1  0.000000 41.409691 66.243073 47.561710
483 4 1  0.000000 40.186634 66.725777 48.721577
484 4 1  0.000000 38.439571 66.508919 48.393261
485 4 1  0.000000 38.566399 68.320511 49.589310
486 4 1  0.000000 36.849831 68.755974 49.252598
487 4 1  0.000000 35.468742 69.801277 49.889835
488 4 1  0.000000 34.416306 69.156189 49.045368
489 4 1  0.000000 33.183548 69.679031 49.714401
490 4 1  0.000000 32.085953 69.556091 49.065083
491 4 1  0.000000 31.368765 71.519104 48.577427
492 4 1  0.000000 30.354696 70.670883 47.912540
493 4 1  0.000000 29.144468 70.814087 46.446465
494 4 1  0.000000 29.199366 69.643120 45.595303
495 4 1  0.000000 27.390072 69.572571 46.472195
496 4 1  0.000000 27.110933 68.211861 47.728630
497 4 1  0.000000 25.399979 67.224770 47.733524
498 4 1  0.000000 25.320332 67.132805 46.144520
499 4 1  0.000000 24.025795 67.121147 44.294147
500 4 1  0.000000 24.780344 66.220451 45.396507
501 5 1  0.000000 115.264008 70.859329 58.504761
502 5 1  0.000000 115.004227 71.533134 56.878418
503 5 1  0.000000 115.683998 72.595779 57.414066
504 5 1  0.000000 116.270149 74.032555 57.917915
505 5 1  0.000000 117.058319 75.417633 58.074825
506 5 1  0.000000 116.893234 77.110535 58.052277
507 5 1  0.000000 115.695686 77.592125 57.044289
508 5 1  0.000000 115.726227 78.907013 58.072769
509 5 1  0.000000 114.444908 78.136543 58.778847
510 5 1  0.000000 115.449219 77.978508 60.654705
511 5 1  0.000000 114.684196 79.098511 61.765236
512 5 1  0.000000 115.094017 80.509613 63.350765
513 5 1  0.000000 113.700081 80.476654 64.885445
514 5 1  0.000000 113.217621 81.249794 66.218231
515 5 1  0.000000 112.635216 82.504822 67.765625
516 5 1  0.000000 111.614853 83.361916 68.507988
517 5 1  0.000000 110.670784 84.081932 69.787376
518 5 1  0.000000 108.881531 84.359520 71.376930
519 5 1  0.000000 108.583412 83.245964 71.250778
520 5 1  0.000000 107.380714 84.563873 70.845764
521 5 1  0.000000 106.335381 83.998993 72.253716
522 5 1  0.000000 105.213875 83.287766 72.282906
523 5 1  0.000000 104.683907 84.656349 73.508850
524 5 1  0.000000 103.640839 85.661217 74.353958
525 5 1  0.000000 103.221382 86.433868 75.885330
526 5 1  0.000000 101.267029 86.455193 74.186241
527 5 1  0.000000 99.357430 85.260254 74.779648
528 5 1  0.000000 98.288368 86.772484 74.082451
529 5 1  0.000000 97.152214 85.908722 74.304657
530 5 1  0.000000 96.227310 86.204803 75.175980
531 5 1  0.000000 95.345863 86.876518 74.199104
532 5 1  0.000000 94.905640 87.580719 75.766144
533 5 1  0.000000 95.486160 88.911110 75.620468
534 5 1  0.000000 93.528343 89.203201 76.363472
535 5 1  0.000000 92.157417 88.842415 77.308685
536 5 1  0.000000 90.855881 88.542686 76.553207
537 5 1  0.000000 89.522942 90.074821 76.718788
538 5 1  0.000000 87.822693 90.334953 78.169739
539 5 1  0.000000 85.876244 89.372604 77.938927
540 5 1  0.000000 84.679001 89.615784 78.880676
541 5 1  0.000000 84.173454 89.936882 80.174591
542 5 1  0.000000 83.154152 89.671021 81.079155
543 5 1  0.000000 81.839546 89.351143 82.211723
544 5 1  0.000000 81.429855 88.849106 83.777802
545 5 1  0.000000 80.862099 87.442551 84.415565
546 5 1  0.000000 79.435661 87.165215 85.148521
547 5 1  0.000000 77.807884 88.907837 86.057213
548 5 1  0.000000 76.262627 89.248367 85.763885
549 5 1  0.000000 75.666939 88.314285 86.980011
550 5 1  0.000000 74.541275 87.749481 86.102882
551 5 1  0.000000 73.503700 87.540565 87.245316
552 5 1  0.000000 72.314911 87.642296 88.434845
553 5 1  0.000000 71.168633 87.905663 89.469788
554 5 1  0.000000 69.701584 86.810898 89.848549
555 5 1  0.000000 67.952599 87.089394 89.708031
556 5 1  0.000000 66.218483 87.391678 88.719200
557 5 1  0.000000 64.305397 88.329033 88.752312
558 5 1  0.000000 62.379772 88.788971 88.815887
559 5 1  0.000000 61.494129 90.283821 89.165962
560 5 1  0.000000 59.885838 89.553886 89.449844
561 5 1  0.000000 59.138866 88.156502 88.720703
562 5 1  0.000000 58.742897 89.048920 90.299774
563 5 1  0.000000 56.682446 88.581581 90.870461
564 5 1  0.000000 56.055695 87.193039 90.662483
565 5 1  0.000000 55.189964 88.430023 90.165306
566 5 1  0.000000 53.812607 87.126564 90.388878
567 5 1  0.000000 52.509914 87.573402 89.828812
568 5 1  0.000000 51.047039 87.467148 90.115166
569 5 1  0.000000 49.922253 88.328514 89.169823
570 5 1  0.000000 47.533115 88.169525 89.557190
571 5 1  0.000000 46.918205 88.947845 90.104973
572 5 1  0.000000 45.078094 89.137840 89.853783
573 5 1  0.000000 43.272633 90.003593 89.585014
574 5 1  0.000000 41.590813 88.969719 89.266808
575 5 1  0.000000 39.869816 88.533020 89.947350
576 5 1  0.000000 38.552490 88.721344 91.153885
577 5 1  0.000000 36.906750 89.708412 90.967621
578 5 1  0.000000 35.454075 89.720177 91.405792
579 5 1  0.000000 33.575935 90.695572 92.686928
580 5 1  0.000000 32.558346 90.884087 91.476082
581 5 1  0.000000 30.824730 90.494957 90.713585
582 5 1  0.000000 29.654572 90.566772 91.077835
583 5 1  0.000000 28.505089 89.925499 91.596046
584 5 1  0.000000 27.735710 90.602951 91.408531
585 5 1  0.000000 27.747063 92.140274 90.914551
586 5 1  0.000000 26.046143 92.687035 90.175629
587 5 1  0.000000 25.241840 92.776970 91.965324
588 5 1  0.000000 25.781181 92.316978 93.162079
589 5 1  0.000000 24.291826 91.418884 93.472099
590 5 1  0.000000 22.623560 91.179871 93.441986
591 5 1  0.000000 22.527609 92.093803 94.629997
592 5 1  0.000000 21.778246 92.361549 95.999191
593 5 1  0.000000 20.311394 92.442924 96.390366
594 5 1  0.000000 20.174265 91.498856 96.269768
595 5 1  0.000000 20.473240 89.640091 95.200256
596 5 1  0.000000 20.536457 88.207329 93.836761
597 5 1  0.000000 20.084274 87.282074 92.307747
598 5 1  0.000000 20.381233 87.186699 90.644745
599 5 1  0.000000 21.002348 88.074486 89.984932
600 5 1  0.000000 20.318562 88.401794 91.036926
601 6 1  0.000000 88.413338 102.852028 73.336601
602 6 1  0.000000 88.360123 103.897087 72.578247
603 6 1  0.000000 89.579376 103.268326 72.746101
604 6 1  0.000000 91.455040 103.531525 72.020897
605 6 1  0.000000 92.142677 100.953918 72.137238
606 6 1  0.000000 92.633934 99.549103 70.923500
607 6 1  0.000000 92.574997 98.502380 70.561256
608 6 1  0.000000 92.306190 97.541054 69.252274
609 6 1  0.000000 92.248512 95.751045 69.386040
610 6 1  0.000000 93.654648 94.918236 68.562019
611 6 1  0.000000 92.835159 93.753441 67.744881
612 6 1  0.000000 93.447144 92.657906 66.660995
613 6 1  0.000000 92.069397 92.987724 67.554489