Created with TaichiMD

1000 atoms
990 bonds
  0 angles
  0 dihedrals
  0 impropers

1 atom types
1 bond types
0 angle types
0 dihedral types
0 improper types

-80.00000  80.00000 xlo xhi
-80.00000  80.00000 ylo yhi
-80.00000  80.00000 zlo zhi

Masses

1 10.0000

Atoms

  1 0 1  0.000000 66.925110  1.925231 91.822479
  2 0 1  0.000000 67.652489  2.331808 90.426529
  3 0 1  0.000000 67.701340  3.621356 90.834923
  4 0 1  0.000000 66.850189  4.837901 90.129097
  5 0 1  0.000000 66.169273  5.834960 88.965462
  6 0 1  0.000000 65.411346  6.435674 87.643356
  7 0 1  0.000000 66.889038  6.532941 87.735573
  8 0 1  0.000000 66.745399  7.826107 87.347313
  9 0 1  0.000000 68.218506  8.886984 86.499222
 10 0 1  0.000000 69.307510  9.494774 87.721161
 11 0 1  0.000000 69.873695  9.455803 89.142242
 12 0 1  0.000000 69.885979 10.580161 90.617851
 13 0 1  0.000000 70.401932 11.726693 89.091141
 14 0 1  0.000000 71.796631 12.277030 89.150429
 15 0 1  0.000000 72.766563 11.367369 89.388214
 16 0 1  0.000000 73.920937 12.273998 89.648003
 17 0 1  0.000000 74.769989 11.033808 89.745270
 18 0 1  0.000000 75.570671 11.600957 89.276321
 19 0 1  0.000000 76.404152 11.285563 90.455093
 20 0 1  0.000000 78.026360 11.415357 91.566879
 21 0 1  0.000000 79.372894 10.635351 91.168533
 22 0 1  0.000000 79.512711 10.806305 89.853973
 23 0 1  0.000000 80.956032 11.671717 88.949501
 24 0 1  0.000000 80.186920 11.377103 87.247147
 25 0 1  0.000000 79.340065 10.785032 86.012100
 26 0 1  0.000000 79.106277 11.896422 85.421524
 27 0 1  0.000000 78.510910 13.184284 85.659531
 28 0 1  0.000000 78.815269 14.941402 86.023735
 29 0 1  0.000000 77.624008 14.723343 87.019608
 30 0 1  0.000000 78.624916 16.122229 86.848488
 31 0 1  0.000000 80.137077 16.147249 86.429276
 32 0 1  0.000000 81.620575 14.949927 86.552444
 33 0 1  0.000000 83.193779 14.559237 86.795792
 34 0 1  0.000000 84.819946 15.103324 87.380531
 35 0 1  0.000000 83.834755 15.987489 87.893234
 36 0 1  0.000000 83.773148 16.872330 89.689438
 37 0 1  0.000000 82.668037 16.671656 90.895096
 38 0 1  0.000000 80.969223 16.819153 91.034348
 39 0 1  0.000000 81.525070 18.627117 90.591011
 40 0 1  0.000000 81.297035 19.316301 88.640991
 41 0 1  0.000000 82.086555 20.783567 87.454025
 42 0 1  0.000000 81.244576 21.160484 86.817467
 43 0 1  0.000000 81.308197 20.537558 85.548088
 44 0 1  0.000000 81.530281 22.133387 86.831352
 45 0 1  0.000000 80.522949 23.741179 86.982849
 46 0 1  0.000000 80.685776 25.315573 86.644669
 47 0 1  0.000000 82.103424 24.267149 86.099945
 48 0 1  0.000000 82.600525 25.682337 85.351662
 49 0 1  0.000000 81.626869 26.267881 83.988190
 50 0 1  0.000000 83.249283 25.664356 83.272461
 51 0 1  0.000000 82.756905 24.386391 81.536957
 52 0 1  0.000000 81.819794 22.887693 80.970329
 53 0 1  0.000000 82.556473 21.369207 80.487907
 54 0 1  0.000000 82.862778 19.499990 79.699455
 55 0 1  0.000000 84.325485 20.161173 79.283974
 56 0 1  0.000000 85.811615 19.995737 79.999168
 57 0 1  0.000000 87.130562 19.587984 80.894325
 58 0 1  0.000000 86.267555 20.307148 81.980408
 59 0 1  0.000000 87.159218 20.734489 82.753746
 60 0 1  0.000000 86.217148 20.683979 84.324333
 61 0 1  0.000000 86.614891 19.514580 85.234077
 62 0 1  0.000000 87.694870 19.133583 85.523399
 63 0 1  0.000000 87.884941 17.842512 86.078697
 64 0 1  0.000000 88.051323 16.939898 87.632019
 65 0 1  0.000000 88.669487 18.459213 88.260208
 66 0 1  0.000000 87.852089 18.865051 89.420044
 67 0 1  0.000000 86.142128 19.111452 90.774437
 68 0 1  0.000000 85.265205 20.103735 89.764221
 69 0 1  0.000000 84.552116 20.728071 91.462898
 70 0 1  0.000000 83.112587 21.659586 91.878242
 71 0 1  0.000000 82.133331 23.020094 92.403214
 72 0 1  0.000000 81.088165 21.605190 93.682648
 73 0 1  0.000000 80.161766 22.555073 94.215874
 74 0 1  0.000000 80.018890 23.314543 95.346054
 75 0 1  0.000000 80.569618 24.155350 96.876236
 76 0 1  0.000000 79.124374 23.791246 97.143227
 77 0 1  0.000000 79.146255 23.125271 98.748878
 78 0 1  0.000000 79.144455 23.986824 100.418228
 79 0 1  0.000000 79.263245 25.721224 101.835899
 80 0 1  0.000000 79.484894 26.496540 103.530266
 81 0 1  0.000000 80.168282 26.470503 101.766876
 82 0 1  0.000000 81.735512 26.962715 101.471336
 83 0 1  0.000000 83.493629 26.380215 101.700455
 84 0 1  0.000000 84.909027 25.501085 101.823059
 85 0 1  0.000000 84.755165 24.746479 100.526352
 86 0 1  0.000000 86.008041 24.642500 100.329681
 87 0 1  0.000000 87.102974 23.008854 99.944260
 88 0 1  0.000000 88.519791 23.097570 98.956726
 89 0 1  0.000000 89.274773 23.435146 97.544189
 90 0 1  0.000000 89.565781 22.402950 97.271561
 91 0 1  0.000000 89.784203 24.168859 97.009262
 92 0 1  0.000000 89.599434 24.281197 95.547134
 93 0 1  0.000000 91.176247 24.785053 95.583191
 94 0 1  0.000000 92.257248 25.296925 94.561317
 95 0 1  0.000000 93.405167 25.360157 95.355415
 96 0 1  0.000000 93.494705 24.519676 96.330177
 97 0 1  0.000000 93.097183 24.252476 97.760742
 98 0 1  0.000000 92.708061 25.665678 99.134277
 99 0 1  0.000000 93.013680 26.827707 99.816910
100 0 1  0.000000 91.987625 27.357159 98.660881
101 1 1  0.000000 76.145004 30.042603 88.408813
102 1 1  0.000000 75.173134 30.843658 89.924286
103 1 1  0.000000 74.369225 32.139030 90.384544
104 1 1  0.000000 74.628159 32.755917 89.359879
105 1 1  0.000000 74.393318 33.394737 91.009277
106 1 1  0.000000 76.500290 33.078629 90.856949
107 1 1  0.000000 78.387619 33.598839 90.306122
108 1 1  0.000000 79.178543 34.469955 91.519005
109 1 1  0.000000 80.161560 33.411808 92.746384
110 1 1  0.000000 81.258209 32.266468 92.938385
111 1 1  0.000000 82.712395 32.727421 91.893707
112 1 1  0.000000 83.250534 33.883770 90.980545
113 1 1  0.000000 83.485542 35.260006 92.264168
114 1 1  0.000000 82.888512 35.903385 91.450645
115 1 1  0.000000 82.732018 37.590767 90.820045
116 1 1  0.000000 83.425049 37.867252 91.463005
117 1 1  0.000000 82.483437 37.526943 90.003235
118 1 1  0.000000 84.206924 37.661133 88.812485
119 1 1  0.000000 85.817047 36.560837 88.513687
120 1 1  0.000000 86.595825 35.687134 90.148148
121 1 1  0.000000 87.615341 34.572041 89.501160
122 1 1  0.000000 86.801735 33.250019 89.170685
123 1 1  0.000000 85.752510 33.094326 87.727272
124 1 1  0.000000 87.791870 33.648022 87.150398
125 1 1  0.000000 86.734657 33.834698 85.644791
126 1 1  0.000000 87.083946 31.867220 85.965805
127 1 1  0.000000 88.526688 30.796932 85.993668
128 1 1  0.000000 88.751343 30.571339 84.733765
129 1 1  0.000000 89.884232 29.836508 84.536240
130 1 1  0.000000 90.498009 28.830273 83.291916
131 1 1  0.000000 90.070595 29.649717 81.788696
132 1 1  0.000000 91.082695 29.560061 80.155899
133 1 1  0.000000 92.335197 31.030151 80.583488
134 1 1  0.000000 92.659004 32.240875 81.984932
135 1 1  0.000000 92.904144 31.423727 83.064903
136 1 1  0.000000 94.629669 31.132442 82.839432
137 1 1  0.000000 95.666374 32.417213 83.534111
138 1 1  0.000000 94.507126 32.105324 84.394653
139 1 1  0.000000 93.768562 33.359901 85.333786
140 1 1  0.000000 92.913719 32.549229 86.968758
141 1 1  0.000000 92.877701 33.150471 88.164558
142 1 1  0.000000 93.509415 33.000591 89.878410
143 1 1  0.000000 92.901863 34.215347 89.470901
144 1 1  0.000000 91.995766 35.347157 90.470421
145 1 1  0.000000 90.610855 36.265453 90.360352
146 1 1  0.000000 89.674210 37.305107 90.114525
147 1 1  0.000000 88.553383 38.870918 90.426872
148 1 1  0.000000 87.387787 40.126259 90.339943
149 1 1  0.000000 86.737144 39.526630 91.035034
150 1 1  0.000000 86.628830 41.235394 91.075218
151 1 1  0.000000 84.870811 40.851986 90.016037
152 1 1  0.000000 83.479561 41.629688 89.415421
153 1 1  0.000000 82.761543 42.368790 87.944588
154 1 1  0.000000 82.309944 43.071877 88.985474
155 1 1  0.000000 80.980820 43.415569 88.031227
156 1 1  0.000000 81.195419 44.368244 86.498070
157 1 1  0.000000 80.655441 44.854290 85.271576
158 1 1  0.000000 80.872871 44.129398 84.235634
159 1 1  0.000000 79.715508 43.133923 84.614838
160 1 1  0.000000 78.107559 44.230221 84.155235
161 1 1  0.000000 78.674042 43.892067 82.306030
162 1 1  0.000000 77.497963 42.627556 81.676254
163 1 1  0.000000 77.683434 41.607563 80.827217
164 1 1  0.000000 77.327568 42.144028 80.209648
165 1 1  0.000000 79.108162 40.992062 80.130280
166 1 1  0.000000 79.949051 40.958977 78.621147
167 1 1  0.000000 81.195763 40.821632 77.653885
168 1 1  0.000000 81.863007 40.318970 76.648041
169 1 1  0.000000 81.563324 39.887096 75.815414
170 1 1  0.000000 82.634254 38.918907 76.162987
171 1 1  0.000000 82.360115 37.630486 75.296730
172 1 1  0.000000 81.945618 36.210175 74.386124
173 1 1  0.000000 82.149536 35.841385 75.691071
174 1 1  0.000000 83.107643 35.561020 76.901855
175 1 1  0.000000 84.689995 35.368786 76.483170
176 1 1  0.000000 84.062965 34.132446 77.164986
177 1 1  0.000000 85.129730 33.422432 75.988235
178 1 1  0.000000 86.080795 33.747299 74.362061
179 1 1  0.000000 87.638405 33.332535 74.477852
180 1 1  0.000000 88.010117 35.036747 74.934265
181 1 1  0.000000 88.778427 35.819672 76.599731
182 1 1  0.000000 90.260574 37.235111 75.963058
183 1 1  0.000000 90.139725 38.144611 74.073425
184 1 1  0.000000 91.507324 38.827339 73.722855
185 1 1  0.000000 91.444298 37.351074 73.023109
186 1 1  0.000000 91.942162 38.802448 73.285492
187 1 1  0.000000 93.144127 39.765484 73.441681
188 1 1  0.000000 94.561325 40.555687 72.653221
189 1 1  0.000000 94.840141 40.011078 71.163261
190 1 1  0.000000 94.132256 41.004974 70.546982
191 1 1  0.000000 94.316452 42.122379 70.511711
192 1 1  0.000000 94.964050 43.917564 69.747726
193 1 1  0.000000 95.030937 44.110046 71.436493
194 1 1  0.000000 96.142998 44.690044 72.245537
195 1 1  0.000000 95.672272 43.565361 72.867111
196 1 1  0.000000 94.989708 43.678627 74.634499
197 1 1  0.000000 95.672180 42.776772 75.651680
198 1 1  0.000000 94.869522 41.912937 77.224014
199 1 1  0.000000 95.248070 40.296494 77.991852
200 1 1  0.000000 94.473320 39.547394 76.858154
201 2 1  0.000000 68.532295 55.428020 58.661621
202 2 1  0.000000 67.052513 56.745937 59.050320
203 2 1  0.000000 66.651009 55.402866 59.503853
204 2 1  0.000000 66.345200 54.944942 60.787300
205 2 1  0.000000 66.298370 53.350750 59.982040
206 2 1  0.000000 65.613419 51.766266 60.640842
207 2 1  0.000000 64.875595 51.454536 61.624012
208 2 1  0.000000 63.137417 52.640587 61.698605
209 2 1  0.000000 61.591381 53.119629 62.873032
210 2 1  0.000000 60.870132 51.523354 62.682907
211 2 1  0.000000 61.831734 51.166615 64.430321
212 2 1  0.000000 61.705139 51.240150 65.985741
213 2 1  0.000000 62.093979 51.293266 67.509293
214 2 1  0.000000 62.432602 53.425373 67.593681
215 2 1  0.000000 63.693573 53.925495 66.568100
216 2 1  0.000000 65.223373 54.109154 67.226135
217 2 1  0.000000 66.184853 55.572910 66.838921
218 2 1  0.000000 66.755402 56.577221 65.543053
219 2 1  0.000000 67.000008 55.420578 64.824493
220 2 1  0.000000 68.785683 54.952782 63.917946
221 2 1  0.000000 68.777664 54.525307 62.534546
222 2 1  0.000000 68.245987 53.153790 63.665165
223 2 1  0.000000 68.749092 51.502609 64.355988
224 2 1  0.000000 69.364471 49.893444 63.565155
225 2 1  0.000000 70.224716 50.246655 62.159073
226 2 1  0.000000 71.980362 49.899155 61.348145
227 2 1  0.000000 72.040062 49.151798 62.349552
228 2 1  0.000000 73.319946 47.994667 62.030758
229 2 1  0.000000 72.453026 48.013554 60.472740
230 2 1  0.000000 74.504768 47.198963 60.029583
231 2 1  0.000000 75.264999 48.342136 61.184608
232 2 1  0.000000 77.011192 49.166286 61.264412
233 2 1  0.000000 76.285728 48.489967 62.581520
234 2 1  0.000000 77.977043 48.958168 62.357147
235 2 1  0.000000 79.209351 49.240425 63.438313
236 2 1  0.000000 80.023918 50.546345 63.124092
237 2 1  0.000000 79.388870 50.305984 64.275146
238 2 1  0.000000 79.307907 52.222485 64.540970
239 2 1  0.000000 78.008842 52.321693 63.592545
240 2 1  0.000000 76.611717 53.137070 63.940632
241 2 1  0.000000 75.758041 54.137524 64.056480
242 2 1  0.000000 75.136734 55.019199 64.753922
243 2 1  0.000000 74.982834 56.012436 66.278664
244 2 1  0.000000 75.140221 55.353100 67.737724
245 2 1  0.000000 76.212700 54.430504 67.485413
246 2 1  0.000000 76.062836 52.819252 67.582039
247 2 1  0.000000 75.440819 52.876915 69.421509
248 2 1  0.000000 75.895348 52.336483 71.398186
249 2 1  0.000000 74.141296 51.878887 71.636505
250 2 1  0.000000 74.834007 51.157146 70.810692
251 2 1  0.000000 75.677208 49.464275 71.159561
252 2 1  0.000000 76.661873 49.480900 69.897354
253 2 1  0.000000 77.552383 49.371269 68.850899
254 2 1  0.000000 77.275497 47.894440 68.895950
255 2 1  0.000000 79.105652 47.736244 68.977188
256 2 1  0.000000 80.153969 46.835049 67.454437
257 2 1  0.000000 80.074532 45.910458 68.525360
258 2 1  0.000000 78.933365 44.515591 67.995285
259 2 1  0.000000 78.463730 43.841167 69.549149
260 2 1  0.000000 78.554405 43.783363 70.941437
261 2 1  0.000000 77.766762 44.558949 71.574532
262 2 1  0.000000 76.397789 44.502316 71.983955
263 2 1  0.000000 77.052765 45.685337 72.828850
264 2 1  0.000000 75.820564 45.846092 73.302109
265 2 1  0.000000 76.160339 46.956242 74.635963
266 2 1  0.000000 74.841721 47.742172 74.709290
267 2 1  0.000000 73.861267 47.781223 76.535202
268 2 1  0.000000 74.859360 48.553806 76.079475
269 2 1  0.000000 75.601273 50.052662 75.886108
270 2 1  0.000000 75.372910 51.539047 76.888138
271 2 1  0.000000 74.971062 50.177868 77.310966
272 2 1  0.000000 75.179344 50.853958 78.615303
273 2 1  0.000000 76.810555 51.758362 79.098236
274 2 1  0.000000 77.838570 50.309708 79.828392
275 2 1  0.000000 77.542297 50.138824 81.452576
276 2 1  0.000000 78.866699 49.403866 82.116196
277 2 1  0.000000 80.690887 50.599957 81.963669
278 2 1  0.000000 81.347305 49.410370 82.311287
279 2 1  0.000000 82.270531 48.694183 83.224411
280 2 1  0.000000 82.297615 47.628998 83.187195
281 2 1  0.000000 83.740738 48.605576 83.722649
282 2 1  0.000000 84.368996 47.661789 84.145264
283 2 1  0.000000 85.448318 46.873127 84.866371
284 2 1  0.000000 86.244415 45.079479 85.026436
285 2 1  0.000000 85.782753 43.946129 84.883575
286 2 1  0.000000 87.165909 43.422771 85.684784
287 2 1  0.000000 88.001274 43.350403 84.689194
288 2 1  0.000000 89.321838 43.207794 84.991409
289 2 1  0.000000 90.491417 43.927547 84.917679
290 2 1  0.000000 90.949081 44.358566 86.359932
291 2 1  0.000000 91.470009 45.825584 87.462395
292 2 1  0.000000 90.614220 46.794800 88.762070
293 2 1  0.000000 91.912888 46.563587 89.477951
294 2 1  0.000000 91.717163 47.469173 88.359398
295 2 1  0.000000 91.413406 48.491158 90.098701
296 2 1  0.000000 92.107941 48.932667 91.272850
297 2 1  0.000000 92.851212 50.074581 92.225845
298 2 1  0.000000 93.837761 51.345276 91.814896
299 2 1  0.000000 92.526779 52.560539 92.537743
300 2 1  0.000000 93.184944 52.905819 91.343620
301 3 1  0.000000 83.766281 60.591457 106.056679
302 3 1  0.000000 83.070572 58.585960 106.367760
303 3 1  0.000000 82.738281 57.973976 105.312149
304 3 1  0.000000 81.624802 58.685364 104.501740
305 3 1  0.000000 80.253624 59.043804 103.302765
306 3 1  0.000000 80.536232 58.925919 101.524231
307 3 1  0.000000 80.612633 59.046612 99.551338
308 3 1  0.000000 81.328033 59.910038 99.720253
309 3 1  0.000000 80.177086 58.954262 98.019058
310 3 1  0.000000 79.079506 60.126122 97.673424
311 3 1  0.000000 78.520981 61.676785 98.944862
312 3 1  0.000000 76.813187 61.301266 99.245209
313 3 1  0.000000 77.302788 62.129074 97.596786
314 3 1  0.000000 76.534271 63.230442 96.261787
315 3 1  0.000000 77.923668 63.842644 95.251038
316 3 1  0.000000 78.509323 64.896980 95.810242
317 3 1  0.000000 77.930420 66.150772 95.536430
318 3 1  0.000000 78.576447 67.085823 94.032509
319 3 1  0.000000 78.924446 66.869392 93.066635
320 3 1  0.000000 78.479713 66.218864 92.255035
321 3 1  0.000000 77.638786 65.281456 91.340805
322 3 1  0.000000 78.514290 64.708908 90.541451
323 3 1  0.000000 79.063370 63.757557 91.596382
324 3 1  0.000000 80.324814 63.026485 91.261978
325 3 1  0.000000 81.181046 63.941402 91.618820
326 3 1  0.000000 82.093636 63.807240 90.135574
327 3 1  0.000000 81.173424 64.633141 89.176117
328 3 1  0.000000 81.250526 65.972466 88.764191
329 3 1  0.000000 82.036636 67.636238 87.933159
330 3 1  0.000000 82.967484 66.884865 88.948547
331 3 1  0.000000 84.153542 68.167122 89.301193
332 3 1  0.000000 83.074295 67.509995 90.895561
333 3 1  0.000000 83.758949 66.158463 90.708298
334 3 1  0.000000 84.930016 64.794006 91.129272
335 3 1  0.000000 85.152878 63.212322 91.763748
336 3 1  0.000000 85.933105 62.345573 90.227913
337 3 1  0.000000 85.839066 62.670734 91.922295
338 3 1  0.000000 84.961525 60.790344 92.217270
339 3 1  0.000000 83.532295 59.641529 92.258873
340 3 1  0.000000 83.397789 58.383793 92.850555
341 3 1  0.000000 84.915749 58.015072 92.386742
342 3 1  0.000000 84.285904 57.258656 91.501167
343 3 1  0.000000 83.631332 55.985676 91.874092
344 3 1  0.000000 84.245033 54.703651 91.595200
345 3 1  0.000000 83.443741 53.854885 91.900955
346 3 1  0.000000 83.436043 54.309380 93.306740
347 3 1  0.000000 83.293938 53.858479 94.672844
348 3 1  0.000000 84.069740 54.996864 94.818291
349 3 1  0.000000 86.062920 54.842194 94.223450
350 3 1  0.000000 87.424240 56.024666 93.139580
351 3 1  0.000000 89.127724 55.549923 92.958397
352 3 1  0.000000 88.861809 55.808868 94.710655
353 3 1  0.000000 89.147041 56.853813 93.337746
354 3 1  0.000000 91.288208 57.840279 92.945778
355 3 1  0.000000 90.958260 58.039959 91.549232
356 3 1  0.000000 89.770119 59.196369 90.274826
357 3 1  0.000000 88.666298 61.001717 90.371567
358 3 1  0.000000 89.624466 60.637520 88.795578
359 3 1  0.000000 90.517693 60.520302 87.419052
360 3 1  0.000000 89.157684 60.508434 86.689262
361 3 1  0.000000 87.952438 60.282421 86.639343
362 3 1  0.000000 86.380722 59.034344 86.191643
363 3 1  0.000000 85.745110 57.465126 86.313545
364 3 1  0.000000 85.267464 59.263229 85.977142
365 3 1  0.000000 85.673882 57.488647 86.237839
366 3 1  0.000000 86.239838 55.783638 86.163193
367 3 1  0.000000 87.579407 55.103348 86.610374
368 3 1  0.000000 88.217155 56.029732 84.707642
369 3 1  0.000000 89.526779 56.352238 86.267792
370 3 1  0.000000 90.665321 56.276505 85.339073
371 3 1  0.000000 91.703072 57.290138 84.749100
372 3 1  0.000000 92.222862 58.552998 84.039871
373 3 1  0.000000 92.693581 59.911423 82.792580
374 3 1  0.000000 91.930458 61.052307 83.301559
375 3 1  0.000000 91.574837 62.830742 83.663170
376 3 1  0.000000 90.201775 63.354130 84.454208
377 3 1  0.000000 89.221291 64.462860 84.648117
378 3 1  0.000000 88.815453 64.375877 86.350945
379 3 1  0.000000 87.809380 65.877426 86.762337
380 3 1  0.000000 87.840446 67.155838 87.391869
381 3 1  0.000000 87.786873 67.973053 88.474609
382 3 1  0.000000 86.723000 67.286850 90.177467
383 3 1  0.000000 86.843773 66.896622 92.251152
384 3 1  0.000000 87.237701 68.233818 90.744080
385 3 1  0.000000 87.429062 66.885056 91.855125
386 3 1  0.000000 89.091064 66.683716 91.323959
387 3 1  0.000000 90.144577 66.434677 90.118469
388 3 1  0.000000 90.615761 67.936722 90.280663
389 3 1  0.000000 90.795425 66.392654 89.866371
390 3 1  0.000000 91.415070 66.292618 88.391479
391 3 1  0.000000 92.870056 66.086952 88.409180
392 3 1  0.000000 94.198975 65.920403 87.544746
393 3 1  0.000000 93.543480 66.758865 86.247559
394 3 1  0.000000 94.370018 67.472374 87.789322
395 3 1  0.000000 95.325737 67.294388 86.445847
396 3 1  0.000000 96.872910 68.403801 86.287422
397 3 1  0.000000 97.255135 69.564888 85.156509
398 3 1  0.000000 97.580666 68.115402 85.370743
399 3 1  0.000000 98.315643 69.261635 85.962700
400 3 1  0.000000 99.294868 70.267113 85.803192
401 4 1  0.000000 78.368813 77.473183 64.678543
402 4 1  0.000000 76.316368 77.917557 65.039490
403 4 1  0.000000 75.695854 76.873863 66.581131
404 4 1  0.000000 75.835815 75.506805 66.121872
405 4 1  0.000000 74.225685 75.322540 66.111755
406 4 1  0.000000 74.068321 74.693146 67.830673
407 4 1  0.000000 72.721588 75.125389 69.555290
408 4 1  0.000000 72.304672 74.202118 69.376984
409 4 1  0.000000 71.463219 73.301559 70.348907
410 4 1  0.000000 70.912735 72.040474 70.309540
411 4 1  0.000000 70.945915 72.016022 71.704552
412 4 1  0.000000 70.975868 70.400589 71.284111
413 4 1  0.000000 71.260651 69.154457 72.099945
414 4 1  0.000000 71.053787 68.012474 71.252602
415 4 1  0.000000 72.298645 67.634789 72.225502
416 4 1  0.000000 73.909554 67.425537 72.106079
417 4 1  0.000000 74.596291 65.969559 72.653946
418 4 1  0.000000 73.385811 64.924332 72.345917
419 4 1  0.000000 72.539680 64.013763 72.268913
420 4 1  0.000000 71.013359 63.493553 72.322586
421 4 1  0.000000 71.308678 62.325825 72.930168
422 4 1  0.000000 70.753273 61.473888 73.567902
423 4 1  0.000000 68.983818 60.962914 73.388100
424 4 1  0.000000 68.830658 60.294926 72.099434
425 4 1  0.000000 68.832420 59.938805 70.402885
426 4 1  0.000000 70.518997 58.651707 70.371910
427 4 1  0.000000 72.757851 58.296570 70.702248
428 4 1  0.000000 73.186905 58.568913 71.721664
429 4 1  0.000000 74.048264 59.003597 70.463249
430 4 1  0.000000 75.525093 59.406719 69.878181
431 4 1  0.000000 75.957207 59.582531 71.495018
432 4 1  0.000000 77.020515 58.328568 70.268547
433 4 1  0.000000 77.993790 58.592663 71.414650
434 4 1  0.000000 78.782196 59.650253 71.623161
435 4 1  0.000000 79.864532 60.520855 71.361839
436 4 1  0.000000 80.658257 59.621849 72.522308
437 4 1  0.000000 81.151215 58.288853 73.600479
438 4 1  0.000000 81.828880 58.971794 74.876572
439 4 1  0.000000 81.163475 60.436058 74.732361
440 4 1  0.000000 79.540077 60.974693 75.327057
441 4 1  0.000000 78.209938 62.343357 75.915421
442 4 1  0.000000 76.555710 62.615799 75.979294
443 4 1  0.000000 76.258057 63.124336 77.711258
444 4 1  0.000000 75.322067 64.929047 76.700294
445 4 1  0.000000 75.232460 66.892418 76.829529
446 4 1  0.000000 75.643349 68.134972 76.715149
447 4 1  0.000000 75.045059 69.754463 75.323029
448 4 1  0.000000 74.149963 70.701996 75.759697
449 4 1  0.000000 73.461319 71.786842 75.390274
450 4 1  0.000000 73.740631 73.115791 74.334908
451 4 1  0.000000 74.100609 73.145416 73.108353
452 4 1  0.000000 74.622368 72.725586 71.492760
453 4 1  0.000000 75.178993 71.505554 70.224678
454 4 1  0.000000 74.750084 71.564659 68.581032
455 4 1  0.000000 73.433380 70.908913 68.540909
456 4 1  0.000000 72.467010 69.681854 67.861229
457 4 1  0.000000 70.645523 69.010406 68.119118
458 4 1  0.000000 69.596298 68.566383 67.271080
459 4 1  0.000000 68.611610 67.713600 66.500313
460 4 1  0.000000 67.093132 67.748306 66.208214
461 4 1  0.000000 67.050735 65.829498 65.157730
462 4 1  0.000000 68.136742 66.484138 64.107162
463 4 1  0.000000 68.066093 66.510025 62.426933
464 4 1  0.000000 68.769722 65.716415 61.608864
465 4 1  0.000000 69.876045 64.717003 62.212868
466 4 1  0.000000 69.950043 65.321800 60.731689
467 4 1  0.000000 71.587791 65.494240 60.475502
468 4 1  0.000000 72.078773 63.806614 59.522842
469 4 1  0.000000 72.721123 63.480785 57.512672
470 4 1  0.000000 74.226364 63.665600 56.665375
471 4 1  0.000000 74.689621 62.689934 58.489109
472 4 1  0.000000 76.290947 62.898312 60.255360
473 4 1  0.000000 77.234200 63.873112 60.960781
474 4 1  0.000000 78.202377 63.691776 62.302177
475 4 1  0.000000 78.320183 63.674438 63.920971
476 4 1  0.000000 78.492493 65.304802 65.027046
477 4 1  0.000000 77.019852 65.630051 64.827911
478 4 1  0.000000 76.642197 67.059441 65.030449
479 4 1  0.000000 75.957390 67.254585 66.410889
480 4 1  0.000000 77.035263 68.676300 65.896866
481 4 1  0.000000 77.816254 69.166061 67.008614
482 4 1  0.000000 78.600159 70.282463 66.248672
483 4 1  0.000000 80.083595 70.583572 67.049118
484 4 1  0.000000 81.454918 71.043137 65.986145
485 4 1  0.000000 81.070206 71.880074 64.631966
486 4 1  0.000000 82.614204 72.641594 65.439827
487 4 1  0.000000 82.097832 73.578606 64.062111
488 4 1  0.000000 83.391983 74.564156 64.259125
489 4 1  0.000000 83.481560 75.939285 62.671516
490 4 1  0.000000 82.509552 75.863579 61.355598
491 4 1  0.000000 80.937164 75.897652 61.286171
492 4 1  0.000000 80.629044 75.956200 59.519184
493 4 1  0.000000 79.993576 75.593941 58.006432
494 4 1  0.000000 78.590553 76.517120 57.746979
495 4 1  0.000000 77.737808 78.147774 58.143059
496 4 1  0.000000 76.191689 77.822067 58.327099
497 4 1  0.000000 76.600708 79.362633 58.824619
498 4 1  0.000000 76.039177 78.823174 57.261101
499 4 1  0.000000 75.196526 79.532104 55.859089
500 4 1  0.000000 73.411644 79.710083 56.156902
501 5 1  0.000000 59.690472 76.741005 64.480125
502 5 1  0.000000 59.087856 78.027084 63.364040
503 5 1  0.000000 59.063717 76.591339 64.483871
504 5 1  0.000000 59.177773 77.917862 64.968575
505 5 1  0.000000 59.597164 79.353935 65.643539
506 5 1  0.000000 58.400082 79.009552 67.076073
507 5 1  0.000000 58.466156 80.108208 68.009872
508 5 1  0.000000 59.276253 79.899765 69.345222
509 5 1  0.000000 60.364105 80.903023 69.995232
510 5 1  0.000000 59.684750 82.168282 70.982079
511 5 1  0.000000 60.805798 81.948708 70.286552
512 5 1  0.000000 61.104801 83.140083 70.314667
513 5 1  0.000000 61.960804 83.504204 69.029106
514 5 1  0.000000 62.947380 83.923752 68.211189
515 5 1  0.000000 64.134850 85.256866 68.902710
516 5 1  0.000000 65.227402 84.698654 68.901878
517 5 1  0.000000 65.988228 83.844849 67.707863
518 5 1  0.000000 67.281342 83.800934 67.261017
519 5 1  0.000000 67.803291 82.902405 68.269554
520 5 1  0.000000 68.438889 81.678818 68.807091
521 5 1  0.000000 68.860016 80.799133 67.250908
522 5 1  0.000000 69.056549 81.469666 68.840721
523 5 1  0.000000 70.216042 81.224388 69.060036
524 5 1  0.000000 71.553421 81.408401 70.231163
525 5 1  0.000000 72.535347 80.256973 71.183357
526 5 1  0.000000 73.634293 79.709457 69.977318
527 5 1  0.000000 74.258858 80.028938 71.260399
528 5 1  0.000000 75.427567 80.160583 72.321999
529 5 1  0.000000 76.449150 79.873840 73.485718
530 5 1  0.000000 77.297394 78.722809 73.773193
531 5 1  0.000000 77.020828 79.189430 72.440071
532 5 1  0.000000 78.590324 78.235222 73.033730
533 5 1  0.000000 80.083023 79.141052 72.641174
534 5 1  0.000000 81.314247 80.174561 71.731361
535 5 1  0.000000 82.288658 79.379753 72.962769
536 5 1  0.000000 82.437965 80.075058 74.006142
537 5 1  0.000000 82.270477 81.338127 73.490906
538 5 1  0.000000 82.954544 82.725327 74.018517
539 5 1  0.000000 82.308914 83.273918 75.216858
540 5 1  0.000000 81.750343 84.619034 74.998131
541 5 1  0.000000 81.558952 85.901192 75.824333
542 5 1  0.000000 81.981133 87.416710 76.588753
543 5 1  0.000000 80.308296 86.843536 75.755463
544 5 1  0.000000 78.968361 86.209480 76.917480
545 5 1  0.000000 77.256866 85.687134 76.380989
546 5 1  0.000000 76.483963 85.244781 75.214020
547 5 1  0.000000 76.434677 85.451485 76.396973
548 5 1  0.000000 75.495110 85.877365 78.118156
549 5 1  0.000000 75.521896 86.579231 79.926552
550 5 1  0.000000 75.189178 85.003166 79.905418
551 5 1  0.000000 75.211456 83.459496 80.788391
552 5 1  0.000000 75.994095 81.720436 80.536491
553 5 1  0.000000 75.529976 80.525978 81.930679
554 5 1  0.000000 75.564056 79.141846 82.187866
555 5 1  0.000000 76.616135 80.548683 82.631676
556 5 1  0.000000 77.136452 79.762688 83.634979
557 5 1  0.000000 77.531998 80.010620 85.451050
558 5 1  0.000000 78.778435 79.050377 84.677055
559 5 1  0.000000 80.059593 79.498566 84.783386
560 5 1  0.000000 81.613266 79.606224 83.940506
561 5 1  0.000000 81.917305 80.939758 84.227547
562 5 1  0.000000 81.190262 81.798164 83.661217
563 5 1  0.000000 81.865494 82.981583 82.902229
564 5 1  0.000000 82.177589 84.078049 83.907402
565 5 1  0.000000 80.910240 85.293228 83.444038
566 5 1  0.000000 79.393372 86.077187 83.519669
567 5 1  0.000000 80.134529 87.138733 82.506424
568 5 1  0.000000 77.862923 86.983986 82.500961
569 5 1  0.000000 76.942268 88.043114 83.079948
570 5 1  0.000000 75.562439 88.980446 83.958313
571 5 1  0.000000 74.296974 89.264153 84.002411
572 5 1  0.000000 74.921997 90.848404 84.964218
573 5 1  0.000000 74.189629 91.941010 85.369225
574 5 1  0.000000 73.606552 91.230530 86.282982
575 5 1  0.000000 73.450607 92.914177 86.984772
576 5 1  0.000000 73.547119 94.966202 87.352020
577 5 1  0.000000 75.485672 94.793350 87.921249
578 5 1  0.000000 76.211533 93.891762 89.153267
579 5 1  0.000000 77.019310 94.010773 91.057983
580 5 1  0.000000 78.187279 94.957863 91.633789
581 5 1  0.000000 77.805870 93.713943 92.198280
582 5 1  0.000000 79.210442 93.643242 91.994232
583 5 1  0.000000 79.437523 93.639259 93.192688
584 5 1  0.000000 80.276352 94.456749 93.511887
585 5 1  0.000000 81.817490 95.363892 93.759338
586 5 1  0.000000 82.657013 94.040771 93.683372
587 5 1  0.000000 84.294273 94.190948 94.412331
588 5 1  0.000000 84.635124 92.592072 95.823074
589 5 1  0.000000 86.326965 91.950722 94.787231
590 5 1  0.000000 87.726479 91.219826 95.698593
591 5 1  0.000000 88.405724 92.684692 95.410454
592 5 1  0.000000 89.552567 93.598389 95.259407
593 5 1  0.000000 89.084671 93.349327 93.385521
594 5 1  0.000000 88.748596 94.227928 91.942398
595 5 1  0.000000 90.312424 93.978096 92.057922
596 5 1  0.000000 91.148018 92.824509 91.974815
597 5 1  0.000000 91.742119 93.117744 90.797844
598 5 1  0.000000 93.265564 92.189026 90.379761
599 5 1  0.000000 94.881851 91.234978 90.671120
600 5 1  0.000000 94.358063 91.068794 91.219963
601 6 1  0.000000 70.997841 111.496834 56.841911
602 6 1  0.000000 71.080208 110.002007 56.752834
603 6 1  0.000000 70.820793 109.413239 58.585079
604 6 1  0.000000 71.127548 108.620270 60.268311
605 6 1  0.000000 71.436287 107.301582 61.941856
606 6 1  0.000000 72.801147 107.649139 62.194550
607 6 1  0.000000 73.918877 107.367935 63.627338
608 6 1  0.000000 74.652252 105.625816 64.063805
609 6 1  0.000000 75.944313 104.454422 63.931671
610 6 1  0.000000 74.850670 104.320206 65.370758
611 6 1  0.000000 73.801865 103.301285 66.379318
612 6 1  0.000000 72.337234 103.550018 67.484184
613 6 1  0.000000 71.961113 102.087318 68.402802
614 6 1  0.000000 71.984016 101.103172 69.976028
615 6 1  0.000000 73.903229 101.170349 70.572701
616 6 1  0.000000 75.005424 101.843285 69.545799
617 6 1  0.000000 75.716110 102.824272 69.504059
618 6 1  0.000000 76.530724 100.971298 69.544037