Created with TaichiMD

1000 atoms
990 bonds
  0 angles
  0 dihedrals
  0 impropers

1 atom types
1 bond types
0 angle types
0 dihedral types
0 improper types

-80.00000  80.00000 xlo xhi
-80.00000  80.00000 ylo yhi
-80.00000  80.00000 zlo zhi

Masses

1 10.0000

Atoms

  1 0 1  0.000000 72.111916  4.113921 86.067039
  2 0 1  0.000000 71.772736  6.049726 85.904091
  3 0 1  0.000000 72.413582  6.207595 84.418556
  4 0 1  0.000000 73.031181  7.274856 84.691017
  5 0 1  0.000000 74.668869  7.694821 84.440643
  6 0 1  0.000000 74.920387  8.450670 85.485786
  7 0 1  0.000000 75.443222  8.656634 87.092422
  8 0 1  0.000000 77.603973  7.908677 86.571915
  9 0 1  0.000000 78.281151  7.805600 85.825813
 10 0 1  0.000000 79.521248  7.494986 86.344910
 11 0 1  0.000000 78.295235  5.824076 86.890015
 12 0 1  0.000000 78.769569  3.742995 86.637489
 13 0 1  0.000000 78.820473  3.100584 85.468422
 14 0 1  0.000000 78.494850  2.013675 86.265007
 15 0 1  0.000000 77.593292  0.987039 85.801865
 16 0 1  0.000000 78.353775 -0.252416 85.760376
 17 0 1  0.000000 76.881058 -1.562676 85.250595
 18 0 1  0.000000 76.899513 -1.325242 83.617867
 19 0 1  0.000000 77.576935 -0.567295 82.460167
 20 0 1  0.000000 76.844391 -0.481448 81.083496
 21 0 1  0.000000 77.850967  0.076940 79.953644
 22 0 1  0.000000 79.038155  1.243322 79.953575
 23 0 1  0.000000 80.123596  1.347071 78.914085
 24 0 1  0.000000 80.062881  1.766229 77.358406
 25 0 1  0.000000 80.299942  3.506809 76.907898
 26 0 1  0.000000 81.262978  3.529282 76.294853
 27 0 1  0.000000 82.839386  3.380773 76.019844
 28 0 1  0.000000 83.308739  4.585081 74.794594
 29 0 1  0.000000 84.491974  5.000341 76.728798
 30 0 1  0.000000 84.583031  6.510279 77.149597
 31 0 1  0.000000 84.318390  6.651556 75.572533
 32 0 1  0.000000 85.117851  8.433677 75.705154
 33 0 1  0.000000 86.558151  9.371840 73.975792
 34 0 1  0.000000 87.533783  9.305794 72.885506
 35 0 1  0.000000 86.902138 10.415422 71.964195
 36 0 1  0.000000 86.542641 12.183564 72.336525
 37 0 1  0.000000 85.902336 13.250714 73.489304
 38 0 1  0.000000 85.047661 13.452427 71.729675
 39 0 1  0.000000 84.578346 14.202841 70.146912
 40 0 1  0.000000 82.836555 14.130278 70.253304
 41 0 1  0.000000 83.347000 14.766534 69.630310
 42 0 1  0.000000 82.558250 16.442581 68.828270
 43 0 1  0.000000 83.252617 16.359478 66.895271
 44 0 1  0.000000 84.755226 17.474535 67.175148
 45 0 1  0.000000 86.265091 18.426184 67.977318
 46 0 1  0.000000 85.713730 18.834047 68.102028
 47 0 1  0.000000 85.326500 20.118025 67.647766
 48 0 1  0.000000 84.900467 21.973310 67.793724
 49 0 1  0.000000 83.032394 22.411388 67.905922
 50 0 1  0.000000 81.727722 23.617392 66.854378
 51 0 1  0.000000 81.981903 22.147175 67.503807
 52 0 1  0.000000 81.025307 21.127140 66.663727
 53 0 1  0.000000 80.971725 22.229664 65.267632
 54 0 1  0.000000 80.558136 21.297571 64.285057
 55 0 1  0.000000 81.595802 20.385115 63.119343
 56 0 1  0.000000 83.079437 18.970310 62.905300
 57 0 1  0.000000 82.557312 18.155519 61.858822
 58 0 1  0.000000 81.415230 17.557657 61.524414
 59 0 1  0.000000 82.780655 17.678942 60.387920
 60 0 1  0.000000 82.368767 18.865492 59.008465
 61 0 1  0.000000 82.080017 21.208673 58.017410
 62 0 1  0.000000 81.535095 20.005814 59.311905
 63 0 1  0.000000 81.362610 21.078348 59.529869
 64 0 1  0.000000 79.755127 20.831198 59.661617
 65 0 1  0.000000 79.582443 19.417971 60.150433
 66 0 1  0.000000 78.507988 20.316027 60.693218
 67 0 1  0.000000 77.754532 21.461298 61.171726
 68 0 1  0.000000 76.669037 20.926107 59.803600
 69 0 1  0.000000 76.954361 22.507063 59.778034
 70 0 1  0.000000 75.049942 21.895575 59.534618
 71 0 1  0.000000 74.951927 23.391550 58.001045
 72 0 1  0.000000 73.360519 23.493843 56.606216
 73 0 1  0.000000 72.813072 24.594803 55.784454
 74 0 1  0.000000 73.836998 23.553972 55.214897
 75 0 1  0.000000 74.944084 24.458961 54.025265
 76 0 1  0.000000 73.644989 25.277121 54.028046
 77 0 1  0.000000 74.506363 26.375610 53.493931
 78 0 1  0.000000 75.489517 27.783201 52.294792
 79 0 1  0.000000 74.774529 28.979204 51.220390
 80 0 1  0.000000 72.968292 29.315760 51.277012
 81 0 1  0.000000 74.027931 29.242567 51.376896
 82 0 1  0.000000 73.580750 30.930147 51.207836
 83 0 1  0.000000 72.893585 32.349655 51.543495
 84 0 1  0.000000 72.785461 33.631565 52.344925
 85 0 1  0.000000 74.421669 34.204620 51.572639
 86 0 1  0.000000 74.554520 35.381470 50.267456
 87 0 1  0.000000 76.301666 35.105721 49.733177
 88 0 1  0.000000 76.813988 34.186024 51.229527
 89 0 1  0.000000 77.780945 32.738274 50.342861
 90 0 1  0.000000 78.490494 32.340450 49.590080
 91 0 1  0.000000 79.190872 31.671656 51.160625
 92 0 1  0.000000 80.504227 32.340702 49.978687
 93 0 1  0.000000 81.289009 32.840092 50.827415
 94 0 1  0.000000 81.972336 33.371655 49.711212
 95 0 1  0.000000 82.645027 34.764816 48.729980
 96 0 1  0.000000 82.302444 35.539619 47.811550
 97 0 1  0.000000 82.068375 36.123463 46.634922
 98 0 1  0.000000 83.853943 34.891296 46.097458
 99 0 1  0.000000 83.873528 35.091122 43.830975
100 0 1  0.000000 84.498116 34.498962 42.673260
101 1 1  0.000000 73.098366 19.031187 68.688484
102 1 1  0.000000 72.788452 19.733557 69.958931
103 1 1  0.000000 74.394073 20.274147 68.995110
104 1 1  0.000000 73.526688 20.613279 69.999893
105 1 1  0.000000 72.289009 22.002813 70.086731
106 1 1  0.000000 72.236031 22.934109 71.121796
107 1 1  0.000000 70.126099 22.855375 70.291077
108 1 1  0.000000 70.079163 21.920082 71.743301
109 1 1  0.000000 68.898422 20.537848 72.055351
110 1 1  0.000000 68.303574 21.002213 74.238579
111 1 1  0.000000 66.632492 20.907118 74.635490
112 1 1  0.000000 67.264305 21.135139 75.422623
113 1 1  0.000000 68.889664 22.068192 74.933411
114 1 1  0.000000 69.911659 23.128220 76.189758
115 1 1  0.000000 71.197433 22.771492 77.605606
116 1 1  0.000000 71.899353 23.305737 78.807266
117 1 1  0.000000 73.623108 22.922358 77.979446
118 1 1  0.000000 74.767227 21.756779 77.454010
119 1 1  0.000000 75.617592 23.222433 78.321472
120 1 1  0.000000 76.960838 23.616323 77.831390
121 1 1  0.000000 76.553085 24.162313 78.369156
122 1 1  0.000000 78.015999 25.550014 78.102943
123 1 1  0.000000 77.530701 26.594194 77.331177
124 1 1  0.000000 79.247322 26.697180 78.601921
125 1 1  0.000000 78.840927 27.795330 78.433899
126 1 1  0.000000 78.971619 29.325920 78.504646
127 1 1  0.000000 80.055946 31.567766 78.149696
128 1 1  0.000000 79.664352 32.918434 78.977097
129 1 1  0.000000 79.636856 34.770042 78.235893
130 1 1  0.000000 79.575111 35.704918 79.364197
131 1 1  0.000000 80.912048 35.102547 80.555283
132 1 1  0.000000 80.970726 33.846497 81.648140
133 1 1  0.000000 82.087898 32.969040 82.189529
134 1 1  0.000000 83.274399 33.921383 83.961021
135 1 1  0.000000 82.935715 34.746704 85.849686
136 1 1  0.000000 83.200844 35.470432 87.264297
137 1 1  0.000000 83.955673 36.660511 88.571312
138 1 1  0.000000 83.960732 35.613602 90.074425
139 1 1  0.000000 84.242729 34.762424 91.142387
140 1 1  0.000000 83.850105 33.343227 90.946777
141 1 1  0.000000 84.438751 31.348909 90.865997
142 1 1  0.000000 85.844620 30.411804 90.869987
143 1 1  0.000000 84.615891 29.636230 90.211670
144 1 1  0.000000 84.219345 29.433626 91.369804
145 1 1  0.000000 83.201218 28.253635 91.097870
146 1 1  0.000000 81.931824 28.368166 91.654091
147 1 1  0.000000 82.165634 26.840490 92.204498
148 1 1  0.000000 81.085068 25.995817 92.137329
149 1 1  0.000000 80.985291 24.421329 92.582481
150 1 1  0.000000 81.187195 23.682869 94.206436
151 1 1  0.000000 81.237053 24.101650 95.747269
152 1 1  0.000000 81.280716 23.597572 97.388161
153 1 1  0.000000 81.288635 22.861399 98.917641
154 1 1  0.000000 81.249374 23.174896 100.911842
155 1 1  0.000000 80.181854 22.723402 101.898613
156 1 1  0.000000 78.712929 22.979855 101.733963
157 1 1  0.000000 76.910469 24.048759 101.400711
158 1 1  0.000000 76.883591 23.036194 103.168228
159 1 1  0.000000 75.827942 22.421268 103.910316
160 1 1  0.000000 75.579765 23.660969 104.229599
161 1 1  0.000000 73.718407 23.797026 104.371933
162 1 1  0.000000 72.535347 23.840233 102.755295
163 1 1  0.000000 71.207878 22.779358 103.481926
164 1 1  0.000000 69.213707 22.244669 103.265465
165 1 1  0.000000 69.343933 23.484915 104.746216
166 1 1  0.000000 69.048363 23.265848 106.338852
167 1 1  0.000000 67.816154 23.099667 107.348793
168 1 1  0.000000 66.846680 21.059015 107.944565
169 1 1  0.000000 65.378479 20.470316 107.854813
170 1 1  0.000000 63.542778 21.097366 108.149658
171 1 1  0.000000 62.484699 21.179375 109.288605
172 1 1  0.000000 61.339016 20.817596 110.179390
173 1 1  0.000000 59.241528 20.890974 109.175369
174 1 1  0.000000 58.468536 22.265682 108.885681
175 1 1  0.000000 57.226715 21.600849 109.316216
176 1 1  0.000000 56.714233 21.322695 110.030083
177 1 1  0.000000 54.683949 20.621401 109.828239
178 1 1  0.000000 53.805382 19.475418 110.279213
179 1 1  0.000000 54.215870 19.925097 111.645714
180 1 1  0.000000 52.947559 19.129175 111.205223
181 1 1  0.000000 51.780457 19.050049 112.370125
182 1 1  0.000000 50.250317 19.143084 113.645271
183 1 1  0.000000 48.290333 18.910265 114.351959
184 1 1  0.000000 48.051991 17.657135 114.362572
185 1 1  0.000000 46.379128 16.877289 113.565987
186 1 1  0.000000 45.575977 15.812047 113.395096
187 1 1  0.000000 43.651691 15.645184 113.436600
188 1 1  0.000000 43.293774 17.208776 114.006432
189 1 1  0.000000 42.004616 17.102829 113.096527
190 1 1  0.000000 41.159325 15.244431 112.646461
191 1 1  0.000000 40.447147 15.214231 111.426781
192 1 1  0.000000 39.283875 15.828076 112.538925
193 1 1  0.000000 38.280464 14.869198 112.079140
194 1 1  0.000000 36.608051 15.022758 112.811310
195 1 1  0.000000 35.477077 16.195230 112.580994
196 1 1  0.000000 34.018967 16.037758 112.913307
197 1 1  0.000000 33.644520 16.470888 111.547356
198 1 1  0.000000 32.594131 17.407461 111.014572
199 1 1  0.000000 33.021214 17.140270 109.467056
200 1 1  0.000000 33.906467 15.440357 109.473663
201 2 1  0.000000 81.560867 53.834274 75.173676
202 2 1  0.000000 80.626465 54.537327 76.255959
203 2 1  0.000000 81.511307 55.100262 77.191330
204 2 1  0.000000 81.010223 56.145988 78.196564
205 2 1  0.000000 80.343117 56.628033 79.756500
206 2 1  0.000000 79.254471 57.600060 79.705315
207 2 1  0.000000 78.037865 56.901382 79.700165
208 2 1  0.000000 76.706268 57.734661 80.372963
209 2 1  0.000000 76.549171 58.858055 81.573784
210 2 1  0.000000 76.865936 57.178036 81.924088
211 2 1  0.000000 76.869911 55.364990 82.041901
212 2 1  0.000000 75.491768 53.735554 82.250809
213 2 1  0.000000 74.279877 53.263218 81.311340
214 2 1  0.000000 74.201363 51.262993 80.261093
215 2 1  0.000000 73.658424 50.757641 78.845787
216 2 1  0.000000 74.872780 49.934673 77.055931
217 2 1  0.000000 74.997093 50.758213 76.194626
218 2 1  0.000000 76.053688 51.356815 76.450706
219 2 1  0.000000 74.725014 49.537781 75.620979
220 2 1  0.000000 73.631516 49.458317 74.441803
221 2 1  0.000000 71.891327 49.033638 75.100677
222 2 1  0.000000 70.527229 49.025715 73.235916
223 2 1  0.000000 70.063766 50.559597 72.322830
224 2 1  0.000000 70.893547 50.865723 73.237473
225 2 1  0.000000 69.866623 51.856976 73.722664
226 2 1  0.000000 67.992035 51.867058 74.549530
227 2 1  0.000000 67.489311 52.352821 75.906639
228 2 1  0.000000 66.502533 51.596359 74.800323
229 2 1  0.000000 64.828438 51.641602 75.200859
230 2 1  0.000000 63.983772 52.397186 74.630829
231 2 1  0.000000 64.550751 52.349911 73.114388
232 2 1  0.000000 65.332237 53.991776 72.101776
233 2 1  0.000000 66.757263 52.958916 71.593964
234 2 1  0.000000 65.637352 53.777447 70.766777
235 2 1  0.000000 64.351593 53.008904 70.423309
236 2 1  0.000000 64.779655 50.738907 69.366165
237 2 1  0.000000 63.706364 51.926899 69.727325
238 2 1  0.000000 63.952438 51.266758 68.254471
239 2 1  0.000000 62.348930 49.660393 69.000473
240 2 1  0.000000 60.797241 49.665634 68.604980
241 2 1  0.000000 59.681019 48.402637 68.723152
242 2 1  0.000000 58.755642 47.419502 69.806503
243 2 1  0.000000 59.074043 46.141857 71.417213
244 2 1  0.000000 59.091496 44.483055 71.943573
245 2 1  0.000000 57.422405 44.944252 72.934639
246 2 1  0.000000 57.702869 44.253841 73.922600
247 2 1  0.000000 59.236912 43.513042 73.041267
248 2 1  0.000000 60.700256 41.847546 73.426369
249 2 1  0.000000 61.373123 40.375706 74.483223
250 2 1  0.000000 62.603535 39.241936 74.349968
251 2 1  0.000000 64.146599 37.937355 75.291023
252 2 1  0.000000 64.744835 39.496815 74.381409
253 2 1  0.000000 65.154503 37.957352 76.090477
254 2 1  0.000000 65.203812 36.031269 76.440247
255 2 1  0.000000 65.445358 34.210434 77.600304
256 2 1  0.000000 67.286003 33.396259 78.238251
257 2 1  0.000000 68.466515 32.806065 77.980125
258 2 1  0.000000 69.354454 32.832607 76.496452
259 2 1  0.000000 71.057823 32.445290 77.210609
260 2 1  0.000000 72.117516 33.654259 77.785034
261 2 1  0.000000 73.151421 35.111603 77.563835
262 2 1  0.000000 74.486084 34.318539 78.076927
263 2 1  0.000000 75.389778 34.493477 79.505020
264 2 1  0.000000 75.815979 35.579594 80.753876
265 2 1  0.000000 74.562653 35.267128 81.873283
266 2 1  0.000000 75.506683 35.240108 83.111320
267 2 1  0.000000 76.339218 35.918465 84.221313
268 2 1  0.000000 77.086365 34.586544 84.491356
269 2 1  0.000000 78.877380 36.153103 85.045578
270 2 1  0.000000 80.601097 36.945736 84.318222
271 2 1  0.000000 80.943466 38.030598 83.323669
272 2 1  0.000000 79.569740 39.105381 81.715294
273 2 1  0.000000 78.077003 39.250061 82.028923
274 2 1  0.000000 78.209641 40.679829 81.828613
275 2 1  0.000000 77.361832 42.123325 82.341141
276 2 1  0.000000 76.653534 41.711945 83.584442
277 2 1  0.000000 74.883675 41.618011 83.972244
278 2 1  0.000000 74.381676 43.325016 83.925186
279 2 1  0.000000 73.668365 43.761871 85.344673
280 2 1  0.000000 73.818489 43.313946 86.732170
281 2 1  0.000000 72.547668 44.316734 87.485580
282 2 1  0.000000 72.538712 45.681484 87.766327
283 2 1  0.000000 73.849922 46.370129 89.121269
284 2 1  0.000000 74.000000 48.138977 89.260971
285 2 1  0.000000 75.487885 47.681679 89.231720
286 2 1  0.000000 76.886398 47.394367 88.996056
287 2 1  0.000000 78.091713 47.058434 89.842613
288 2 1  0.000000 79.752182 47.722961 89.958984
289 2 1  0.000000 81.277916 47.716953 89.041092
290 2 1  0.000000 81.726814 46.493256 89.833527
291 2 1  0.000000 82.954445 46.182659 90.030670
292 2 1  0.000000 84.339256 45.214947 89.017311
293 2 1  0.000000 85.383820 46.205574 87.962395
294 2 1  0.000000 86.685005 45.022892 88.894051
295 2 1  0.000000 88.230408 44.494095 90.244118
296 2 1  0.000000 88.709412 43.144661 90.363388
297 2 1  0.000000 89.596252 43.245876 91.695374
298 2 1  0.000000 90.415627 44.124722 91.358681
299 2 1  0.000000 92.136955 43.728825 90.424149
300 2 1  0.000000 92.677200 43.368111 88.256645
301 3 1  0.000000 81.144836 68.866547 93.932205
302 3 1  0.000000 79.243980 67.592041 93.712318
303 3 1  0.000000 78.291069 68.070107 94.474358
304 3 1  0.000000 77.450172 67.722687 96.065697
305 3 1  0.000000 75.532257 67.572395 96.279228
306 3 1  0.000000 76.021683 68.340202 96.758865
307 3 1  0.000000 74.912933 69.028488 96.202255
308 3 1  0.000000 74.759926 70.214066 96.763603
309 3 1  0.000000 76.240173 70.603371 97.280983
310 3 1  0.000000 77.163788 71.341026 99.386902
311 3 1  0.000000 78.782005 70.870628 99.840775
312 3 1  0.000000 79.833237 70.896606 98.916641
313 3 1  0.000000 80.639511 70.760918 97.036247
314 3 1  0.000000 81.274696 69.323601 98.559509
315 3 1  0.000000 82.588646 69.873482 99.796577
316 3 1  0.000000 83.317940 70.240044 101.433868
317 3 1  0.000000 83.926979 70.530792 100.180573
318 3 1  0.000000 84.957375 71.616196 101.276268
319 3 1  0.000000 85.218407 72.664459 100.565567
320 3 1  0.000000 84.982330 74.311615 100.129440
321 3 1  0.000000 83.742569 74.455765 98.472244
322 3 1  0.000000 85.290985 74.102501 98.642860
323 3 1  0.000000 86.813904 74.279381 98.636688
324 3 1  0.000000 86.366257 72.394341 97.299004
325 3 1  0.000000 87.107018 70.750099 96.587120
326 3 1  0.000000 87.695801 69.272575 95.121376
327 3 1  0.000000 88.880219 69.657539 94.013680
328 3 1  0.000000 88.484299 69.065536 92.699936
329 3 1  0.000000 89.994934 67.146141 91.537567
330 3 1  0.000000 89.743614 66.883263 89.766541
331 3 1  0.000000 88.291542 65.639893 89.400223
332 3 1  0.000000 87.482857 64.131630 89.536858
333 3 1  0.000000 87.815811 65.482056 88.839691
334 3 1  0.000000 87.659660 65.516769 87.221832
335 3 1  0.000000 86.086426 64.370316 87.056969
336 3 1  0.000000 85.880959 63.593109 86.100487
337 3 1  0.000000 86.729713 62.788082 86.033447
338 3 1  0.000000 86.945587 61.290520 84.986305
339 3 1  0.000000 87.971840 59.812435 85.227570
340 3 1  0.000000 89.963203 60.840839 85.052040
341 3 1  0.000000 90.683159 61.448120 83.432495
342 3 1  0.000000 91.432655 61.976017 81.791862
343 3 1  0.000000 91.329788 63.292336 80.356171
344 3 1  0.000000 90.859131 62.078938 79.588264
345 3 1  0.000000 91.098671 61.505573 78.345261
346 3 1  0.000000 89.705307 61.266277 77.493340
347 3 1  0.000000 89.050041 61.508038 76.297813
348 3 1  0.000000 89.345558 61.445187 74.645493
349 3 1  0.000000 88.010330 62.947105 75.297165
350 3 1  0.000000 88.279732 63.093685 73.941116
351 3 1  0.000000 86.687363 64.002403 74.340042
352 3 1  0.000000 85.556633 64.429161 73.055977
353 3 1  0.000000 84.577118 63.804661 72.571480
354 3 1  0.000000 83.403618 64.863319 71.937523
355 3 1  0.000000 81.817001 65.246956 72.667618
356 3 1  0.000000 80.491486 65.993088 72.054306
357 3 1  0.000000 79.869232 64.166565 71.683929
358 3 1  0.000000 78.721222 62.956997 71.346878
359 3 1  0.000000 78.129799 63.529373 70.533119
360 3 1  0.000000 77.956497 63.685707 68.691002
361 3 1  0.000000 77.104294 62.563240 67.702255
362 3 1  0.000000 76.138771 63.501770 67.838661
363 3 1  0.000000 75.752922 63.878506 66.388268
364 3 1  0.000000 74.566994 63.336258 65.293861
365 3 1  0.000000 73.530891 62.578388 65.540375
366 3 1  0.000000 71.976219 62.643620 66.650856
367 3 1  0.000000 70.703865 62.648571 67.658920
368 3 1  0.000000 70.607872 63.415539 66.283333
369 3 1  0.000000 69.805374 62.372368 67.135551
370 3 1  0.000000 68.968086 64.145706 66.562637
371 3 1  0.000000 67.675819 64.879723 66.905273
372 3 1  0.000000 67.394829 66.376808 65.984428
373 3 1  0.000000 65.709778 64.960052 66.693443
374 3 1  0.000000 65.649193 65.618553 68.454933
375 3 1  0.000000 64.335785 64.774422 68.955711
376 3 1  0.000000 63.146770 64.214348 67.803993
377 3 1  0.000000 62.075035 64.787018 66.514694
378 3 1  0.000000 61.843376 65.858261 65.284760
379 3 1  0.000000 60.247860 66.675697 65.747261
380 3 1  0.000000 58.708393 67.426811 66.928711
381 3 1  0.000000 57.344151 67.659317 67.458687
382 3 1  0.000000 55.906281 68.840195 67.123138
383 3 1  0.000000 54.490063 69.326088 67.596733
384 3 1  0.000000 54.156548 70.691147 67.428429
385 3 1  0.000000 52.218689 70.330948 66.603622
386 3 1  0.000000 53.335880 70.580315 65.551582
387 3 1  0.000000 51.775311 69.221367 64.963409
388 3 1  0.000000 50.006695 68.908478 65.094795
389 3 1  0.000000 48.329529 69.358521 64.436012
390 3 1  0.000000 46.749756 69.792503 65.324532
391 3 1  0.000000 46.050022 69.089195 67.355530
392 3 1  0.000000 45.871342 68.073929 68.936264
393 3 1  0.000000 44.847736 69.687981 69.539841
394 3 1  0.000000 45.807076 70.889420 69.048561
395 3 1  0.000000 46.826145 72.044739 70.049850
396 3 1  0.000000 45.472294 72.635696 70.853188
397 3 1  0.000000 44.885937 74.315392 70.728745
398 3 1  0.000000 46.302776 74.903938 70.296333
399 3 1  0.000000 46.085796 76.138184 69.787788
400 3 1  0.000000 46.822975 74.944366 67.941223
401 4 1  0.000000 104.710953 61.577515 69.817093
402 4 1  0.000000 103.483826 62.456951 70.377205
403 4 1  0.000000 104.379646 63.035999 71.255165
404 4 1  0.000000 105.243500 64.475288 72.686295
405 4 1  0.000000 105.356781 66.183769 71.281555
406 4 1  0.000000 105.387428 67.975624 71.570816
407 4 1  0.000000 104.415451 69.533211 71.253281
408 4 1  0.000000 104.034988 71.184357 72.311844
409 4 1  0.000000 103.941711 72.558968 71.487572
410 4 1  0.000000 103.325020 72.970970 69.991570
411 4 1  0.000000 102.481415 72.431572 69.140900
412 4 1  0.000000 100.518814 72.387779 68.263474
413 4 1  0.000000 101.077660 73.508675 69.279655
414 4 1  0.000000 100.530388 74.133789 68.129654
415 4 1  0.000000 100.402977 74.500473 69.811356
416 4 1  0.000000 100.814285 74.819588 71.199989
417 4 1  0.000000 99.283821 75.834358 71.538895
418 4 1  0.000000 99.940536 77.582611 72.303993
419 4 1  0.000000 98.209473 77.818207 72.526421
420 4 1  0.000000 96.616745 78.984123 73.517921
421 4 1  0.000000 95.376724 78.057068 74.246849
422 4 1  0.000000 94.211212 77.162354 74.958641
423 4 1  0.000000 93.753181 77.869011 76.628250
424 4 1  0.000000 92.983688 77.844734 78.038994
425 4 1  0.000000 93.356155 79.440826 79.153610
426 4 1  0.000000 92.733742 78.327995 80.426491
427 4 1  0.000000 90.611923 78.106415 81.426445
428 4 1  0.000000 89.862053 76.616272 82.744919
429 4 1  0.000000 88.923607 76.190804 84.345612
430 4 1  0.000000 87.595741 76.493591 84.682808
431 4 1  0.000000 88.356224 75.543877 86.050713
432 4 1  0.000000 87.428185 74.588448 88.083389
433 4 1  0.000000 85.410225 73.703896 89.158707
434 4 1  0.000000 84.535477 73.667427 89.203011
435 4 1  0.000000 83.346832 72.841438 90.313988
436 4 1  0.000000 82.082703 72.343498 91.175880
437 4 1  0.000000 81.556580 73.133789 92.646751
438 4 1  0.000000 81.123268 73.241951 94.149338
439 4 1  0.000000 80.164268 72.293762 94.656456
440 4 1  0.000000 78.666725 72.453178 93.644775
441 4 1  0.000000 77.505524 73.208107 94.222191
442 4 1  0.000000 76.307686 73.361496 95.397491
443 4 1  0.000000 75.172516 74.108688 95.149086
444 4 1  0.000000 74.268166 74.841118 95.832008
445 4 1  0.000000 72.445778 74.454689 96.860382
446 4 1  0.000000 70.994049 75.128662 96.756195
447 4 1  0.000000 69.740074 76.383003 96.926033
448 4 1  0.000000 68.261963 76.520683 97.463303
449 4 1  0.000000 67.840050 76.750999 99.504082
450 4 1  0.000000 67.202438 77.766495 98.917953
451 4 1  0.000000 65.956589 78.763840 99.671913
452 4 1  0.000000 64.836472 78.837570 100.697227
453 4 1  0.000000 64.360252 76.710480 101.176933
454 4 1  0.000000 63.016792 76.667610 102.043236
455 4 1  0.000000 62.447170 76.379608 101.253189
456 4 1  0.000000 61.588402 76.079445 99.510109
457 4 1  0.000000 61.763935 76.028618 98.528198
458 4 1  0.000000 60.950981 78.161247 98.157776
459 4 1  0.000000 60.237072 79.540176 98.713707
460 4 1  0.000000 58.684444 80.034531 98.510612
461 4 1  0.000000 58.371578 78.631645 98.857628
462 4 1  0.000000 58.190311 79.667007 99.975212
463 4 1  0.000000 57.690372 77.964149 100.288826
464 4 1  0.000000 57.923038 78.332367 101.942886
465 4 1  0.000000 56.763763 78.352806 102.556129
466 4 1  0.000000 57.341267 77.086769 103.888206
467 4 1  0.000000 57.413437 75.466995 102.605515
468 4 1  0.000000 58.699066 74.400917 102.664764
469 4 1  0.000000 60.181541 73.645988 103.303825
470 4 1  0.000000 58.902985 73.015411 103.352608
471 4 1  0.000000 58.766300 71.021667 103.613136
472 4 1  0.000000 60.464409 70.735077 104.141930
473 4 1  0.000000 60.575901 68.734772 104.281876
474 4 1  0.000000 61.201900 66.867683 104.553810
475 4 1  0.000000 59.337730 66.204948 105.328453
476 4 1  0.000000 60.595097 66.202362 105.795547
477 4 1  0.000000 60.392170 66.862305 107.251572
478 4 1  0.000000 59.067364 66.198891 107.563995
479 4 1  0.000000 60.232273 67.257187 108.866142
480 4 1  0.000000 60.205635 68.110733 110.172348
481 4 1  0.000000 58.324276 67.513641 109.928101
482 4 1  0.000000 58.115963 68.296822 111.038818
483 4 1  0.000000 57.839779 68.310814 112.355515
484 4 1  0.000000 56.899803 67.621132 114.190720
485 4 1  0.000000 58.391663 67.048500 114.409554
486 4 1  0.000000 59.931362 66.598465 115.187630
487 4 1  0.000000 61.324997 66.438492 114.428886
488 4 1  0.000000 60.663757 68.152428 115.369133
489 4 1  0.000000 61.735996 69.409370 116.590904
490 4 1  0.000000 61.187321 69.464478 114.777840
491 4 1  0.000000 61.075996 71.471062 114.463570
492 4 1  0.000000 61.104252 72.329796 113.433891
493 4 1  0.000000 60.702209 72.992706 114.323624
494 4 1  0.000000 61.538216 74.149002 113.363586
495 4 1  0.000000 61.161232 75.748779 114.094894
496 4 1  0.000000 60.363312 76.255646 114.818237
497 4 1  0.000000 61.934860 77.139259 114.007019
498 4 1  0.000000 61.681126 77.946770 115.837296
499 4 1  0.000000 60.192101 77.953377 116.676704
500 4 1  0.000000 59.725479 79.012688 117.473282
501 5 1  0.000000 130.502716 94.391411 51.142876
502 5 1  0.000000 130.345428 94.841522 50.168144
503 5 1  0.000000 131.645355 95.173309 49.086044
504 5 1  0.000000 131.995453 94.134026 49.236595
505 5 1  0.000000 131.383606 92.831467 48.006672
506 5 1  0.000000 132.579102 93.052513 46.828297
507 5 1  0.000000 134.267075 93.276810 46.578018
508 5 1  0.000000 135.529556 92.437531 46.157944
509 5 1  0.000000 136.496185 91.567581 47.003651
510 5 1  0.000000 136.851669 91.036758 48.294693
511 5 1  0.000000 137.422943 90.062569 49.523712
512 5 1  0.000000 138.778397 88.514969 49.998150
513 5 1  0.000000 137.410034 89.265602 51.424198
514 5 1  0.000000 136.662079 89.397156 53.071220
515 5 1  0.000000 135.827103 89.654366 54.329128
516 5 1  0.000000 136.019089 88.491066 55.792274
517 5 1  0.000000 134.769501 87.000435 55.717396
518 5 1  0.000000 134.915131 85.423630 56.907768
519 5 1  0.000000 133.351074 85.414970 57.265137
520 5 1  0.000000 132.767838 84.923676 59.105961
521 5 1  0.000000 133.920792 86.594963 59.734249
522 5 1  0.000000 135.643631 87.266991 60.042210
523 5 1  0.000000 135.504608 86.221207 61.360004
524 5 1  0.000000 135.303970 86.701950 62.830318
525 5 1  0.000000 133.725357 87.670883 63.056404
526 5 1  0.000000 133.460342 86.723549 64.266754
527 5 1  0.000000 131.835495 86.754318 63.771137
528 5 1  0.000000 130.522858 86.969612 64.540154
529 5 1  0.000000 129.960098 88.228210 64.880714
530 5 1  0.000000 128.884155 88.957596 66.212494
531 5 1  0.000000 127.821114 89.454300 66.604820
532 5 1  0.000000 127.216660 88.922089 65.495110
533 5 1  0.000000 125.756989 89.700211 66.669319
534 5 1  0.000000 124.653641 90.569633 65.625511
535 5 1  0.000000 123.445114 90.302490 64.917900
536 5 1  0.000000 123.940201 91.286827 64.006393
537 5 1  0.000000 122.521095 90.144707 64.411499
538 5 1  0.000000 120.917633 89.552193 64.175926
539 5 1  0.000000 121.446205 88.477142 63.383045
540 5 1  0.000000 120.096504 87.833916 63.353844
541 5 1  0.000000 118.559387 86.933502 63.467819
542 5 1  0.000000 116.607803 87.377495 63.016750
543 5 1  0.000000 115.642990 87.768158 63.496811
544 5 1  0.000000 114.126465 87.680908 62.568981
545 5 1  0.000000 113.076866 86.024940 62.294163
546 5 1  0.000000 111.091461 85.876785 62.286175
547 5 1  0.000000 109.706535 85.356331 63.217316
548 5 1  0.000000 108.373711 84.483513 63.793690
549 5 1  0.000000 107.530151 85.385345 62.996262
550 5 1  0.000000 106.538605 85.827553 64.472092
551 5 1  0.000000 104.752098 86.080048 64.244370
552 5 1  0.000000 104.793999 84.587769 64.725929
553 5 1  0.000000 104.469849 83.185150 64.892799
554 5 1  0.000000 105.145378 82.091431 65.179604
555 5 1  0.000000 103.282890 82.751976 64.727570
556 5 1  0.000000 102.690483 82.686859 62.927311
557 5 1  0.000000 101.282227 81.372383 62.742241
558 5 1  0.000000 100.136070 81.847702 62.228924
559 5 1  0.000000 99.976616 80.424774 62.288780
560 5 1  0.000000 98.842117 80.369965 63.849171
561 5 1  0.000000 97.452896 80.492210 62.764069
562 5 1  0.000000 96.143852 80.598526 64.069130
563 5 1  0.000000 95.877777 79.071251 64.143639
564 5 1  0.000000 94.935051 79.911896 64.419365
565 5 1  0.000000 93.846611 79.445854 62.991184
566 5 1  0.000000 92.933624 81.171524 63.013226
567 5 1  0.000000 91.497849 81.993896 63.132687
568 5 1  0.000000 89.926529 82.147491 63.807377
569 5 1  0.000000 90.243774 81.959656 65.396332
570 5 1  0.000000 89.699951 82.283066 67.489021
571 5 1  0.000000 88.175468 81.815170 68.039200
572 5 1  0.000000 87.802917 81.718147 70.056465
573 5 1  0.000000 87.326492 83.331116 70.614738
574 5 1  0.000000 85.926628 84.121620 70.814491
575 5 1  0.000000 84.922592 84.512405 71.777397
576 5 1  0.000000 85.429993 85.719292 72.685730
577 5 1  0.000000 85.777489 85.255028 74.240700
578 5 1  0.000000 85.066582 86.488991 75.438774
579 5 1  0.000000 86.809914 86.636414 76.180977
580 5 1  0.000000 86.521538 87.555817 77.564400
581 5 1  0.000000 86.049446 87.741211 78.718994
582 5 1  0.000000 85.487747 86.295486 79.008652
583 5 1  0.000000 86.788506 85.489601 79.848785
584 5 1  0.000000 85.356506 84.067734 80.858261
585 5 1  0.000000 85.662750 82.812874 82.594727
586 5 1  0.000000 84.714394 83.444290 83.490822
587 5 1  0.000000 84.932030 83.775398 84.900177
588 5 1  0.000000 85.216637 83.301094 86.193535
589 5 1  0.000000 85.491325 82.662811 87.913292
590 5 1  0.000000 85.970009 83.772720 88.644592
591 5 1  0.000000 84.978287 84.188797 89.236343
592 5 1  0.000000 84.713722 85.626427 89.278000
593 5 1  0.000000 82.784279 85.340393 90.038933
594 5 1  0.000000 82.428284 85.951370 88.329643
595 5 1  0.000000 81.995285 87.680008 89.450783
596 5 1  0.000000 82.267357 87.156395 90.788811
597 5 1  0.000000 81.131203 85.874748 92.247726
598 5 1  0.000000 79.768784 85.777679 92.982506
599 5 1  0.000000 79.306427 86.382736 91.310295
600 5 1  0.000000 80.075356 87.026283 92.656334
601 6 1  0.000000 149.866043 80.064888 110.979752
602 6 1  0.000000 148.376526 79.458336 111.789734
603 6 1  0.000000 147.268600 80.771362 111.984901
604 6 1  0.000000 146.933014 78.664429 111.721092
605 6 1  0.000000 145.420853 77.658707 111.173897
606 6 1  0.000000 143.617065 77.303413 111.184334
607 6 1  0.000000 142.566437 78.100044 109.718071
608 6 1  0.000000 141.471268 78.026482 109.717133
609 6 1  0.000000 140.048889 79.030724 108.619614
610 6 1  0.000000 139.013672 78.811111 109.389351
611 6 1  0.000000 138.990540 79.786575 107.674706
612 6 1  0.000000 137.791733 79.690681 109.032379
613 6 1  0.000000 136.223022 79.348648 108.406898
614 6 1  0.000000 134.989456 78.546616 109.582359
615 6 1  0.000000 134.381699 79.175644 108.592346