Created with TaichiMD

1000 atoms
990 bonds
  0 angles
  0 dihedrals
  0 impropers

1 atom types
1 bond types
0 angle types
0 dihedral types
0 improper types

-80.00000  80.00000 xlo xhi
-80.00000  80.00000 ylo yhi
-80.00000  80.00000 zlo zhi

Masses

1 10.0000

Atoms

  1 0 1  0.000000 36.023594 13.465710 80.910538
  2 0 1  0.000000 35.677517 12.371837 82.091705
  3 0 1  0.000000 36.760384 13.302630 82.090424
  4 0 1  0.000000 38.023575 14.716933 82.295135
  5 0 1  0.000000 39.138744 15.048815 81.404877
  6 0 1  0.000000 38.992973 15.430409 82.720268
  7 0 1  0.000000 40.885246 14.952546 82.545090
  8 0 1  0.000000 41.451878 15.865329 83.767563
  9 0 1  0.000000 42.093517 16.723122 84.759056
 10 0 1  0.000000 42.127216 17.799225 83.508911
 11 0 1  0.000000 42.469997 18.836958 82.324837
 12 0 1  0.000000 42.703953 19.899351 81.532196
 13 0 1  0.000000 42.755699 20.822075 80.278671
 14 0 1  0.000000 44.588287 20.168007 80.274254
 15 0 1  0.000000 45.048672 22.055336 79.456940
 16 0 1  0.000000 45.699547 22.870192 80.815369
 17 0 1  0.000000 46.902699 23.892445 79.998253
 18 0 1  0.000000 47.279293 23.231962 78.622086
 19 0 1  0.000000 47.940941 24.226627 78.053734
 20 0 1  0.000000 49.117153 25.130627 77.178574
 21 0 1  0.000000 50.616840 24.341600 76.862251
 22 0 1  0.000000 52.094654 22.963118 76.761627
 23 0 1  0.000000 52.356197 22.098370 78.486572
 24 0 1  0.000000 53.649677 21.224201 78.154068
 25 0 1  0.000000 54.478947 20.273222 78.459839
 26 0 1  0.000000 55.741714 20.200966 79.318146
 27 0 1  0.000000 56.335052 19.003424 80.065720
 28 0 1  0.000000 57.602962 18.163368 81.130096
 29 0 1  0.000000 55.909328 16.956545 80.930763
 30 0 1  0.000000 56.475601 15.790963 80.282135
 31 0 1  0.000000 55.552036 14.089673 80.336800
 32 0 1  0.000000 57.601627 13.243848 80.244423
 33 0 1  0.000000 58.338505 14.317235 80.256546
 34 0 1  0.000000 59.731773 14.955549 81.422112
 35 0 1  0.000000 60.180618 14.929522 79.601257
 36 0 1  0.000000 62.049847 14.658399 79.126274
 37 0 1  0.000000 61.917534 15.808081 79.859673
 38 0 1  0.000000 62.835888 17.579082 79.326294
 39 0 1  0.000000 64.214981 18.127764 79.161705
 40 0 1  0.000000 65.867073 17.753408 79.404045
 41 0 1  0.000000 65.797562 16.713900 81.102867
 42 0 1  0.000000 65.809494 15.107490 80.277519
 43 0 1  0.000000 66.832481 16.033169 81.111740
 44 0 1  0.000000 66.977654 16.103346 82.148422
 45 0 1  0.000000 68.748253 15.683833 82.308762
 46 0 1  0.000000 69.319519 16.901606 81.299629
 47 0 1  0.000000 70.836311 16.200855 82.527069
 48 0 1  0.000000 71.885422 17.800636 82.495132
 49 0 1  0.000000 73.116493 17.640314 81.686310
 50 0 1  0.000000 73.846962 17.308578 80.541519
 51 0 1  0.000000 75.684280 16.768457 81.080940
 52 0 1  0.000000 77.104057 17.618979 80.903419
 53 0 1  0.000000 78.188774 19.066347 81.874603
 54 0 1  0.000000 79.274971 17.707745 80.636055
 55 0 1  0.000000 80.697548 17.294819 80.960716
 56 0 1  0.000000 82.446907 16.559221 80.956886
 57 0 1  0.000000 82.792702 14.878658 81.369835
 58 0 1  0.000000 84.832275 14.362459 80.873863
 59 0 1  0.000000 85.100449 12.800368 80.421364
 60 0 1  0.000000 85.973412 14.015273 81.187805
 61 0 1  0.000000 86.079254 13.952947 79.525185
 62 0 1  0.000000 86.624664 14.974469 78.478485
 63 0 1  0.000000 87.778503 14.664509 77.612236
 64 0 1  0.000000 88.513710 15.799843 78.378601
 65 0 1  0.000000 89.852119 15.683185 78.928436
 66 0 1  0.000000 91.789856 15.964354 77.594002
 67 0 1  0.000000 93.224174 16.643204 77.111679
 68 0 1  0.000000 93.850487 16.427311 78.536545
 69 0 1  0.000000 93.695335 17.700476 79.939011
 70 0 1  0.000000 93.171791 19.103037 79.504143
 71 0 1  0.000000 94.062180 20.129784 79.108063
 72 0 1  0.000000 93.970581 20.287914 78.042274
 73 0 1  0.000000 95.224968 20.765997 77.916786
 74 0 1  0.000000 94.363167 22.418915 77.724663
 75 0 1  0.000000 94.866547 24.256876 78.564972
 76 0 1  0.000000 95.982117 24.722021 76.933868
 77 0 1  0.000000 97.024559 23.947989 76.971786
 78 0 1  0.000000 98.047150 23.166565 76.183960
 79 0 1  0.000000 97.971367 24.301394 76.721313
 80 0 1  0.000000 99.697479 24.024271 75.766762
 81 0 1  0.000000 100.799721 25.069504 75.568108
 82 0 1  0.000000 101.384476 26.608177 75.494354
 83 0 1  0.000000 101.033661 28.100887 75.221420
 84 0 1  0.000000 102.093918 29.356087 75.657082
 85 0 1  0.000000 102.812439 30.575722 75.863678
 86 0 1  0.000000 103.434181 31.231823 76.554176
 87 0 1  0.000000 105.006729 31.062456 75.341606
 88 0 1  0.000000 106.945206 31.491076 74.723999
 89 0 1  0.000000 108.187485 32.064793 75.757477
 90 0 1  0.000000 108.560852 31.643822 74.039055
 91 0 1  0.000000 109.127998 32.527168 72.788223
 92 0 1  0.000000 109.737076 33.251438 72.375267
 93 0 1  0.000000 109.762215 34.417809 72.240051
 94 0 1  0.000000 109.041145 34.502205 70.703796
 95 0 1  0.000000 109.979935 34.120800 69.658691
 96 0 1  0.000000 110.288597 34.689743 68.711327
 97 0 1  0.000000 110.113785 33.700520 67.792175
 98 0 1  0.000000 110.971947 33.279072 66.862106
 99 0 1  0.000000 111.550316 32.127625 66.820824
100 0 1  0.000000 112.011505 33.281136 65.565468
101 1 1  0.000000 44.223412 42.286945 72.160904
102 1 1  0.000000 44.395256 40.739517 72.027397
103 1 1  0.000000 43.290066 39.814034 71.179871
104 1 1  0.000000 42.701809 38.904327 73.017143
105 1 1  0.000000 41.739101 38.406708 73.755753
106 1 1  0.000000 40.861645 36.841457 72.624947
107 1 1  0.000000 41.633709 35.468128 73.549988
108 1 1  0.000000 41.178303 34.307182 71.789513
109 1 1  0.000000 42.761158 33.270050 71.444115
110 1 1  0.000000 42.394432 32.497322 70.950356
111 1 1  0.000000 43.524445 32.702026 71.850189
112 1 1  0.000000 43.968952 30.942955 71.334030
113 1 1  0.000000 42.964211 30.137125 70.300407
114 1 1  0.000000 44.399124 29.530386 71.003532
115 1 1  0.000000 46.077511 29.133419 70.885437
116 1 1  0.000000 46.750885 27.767170 69.965851
117 1 1  0.000000 47.016628 28.756334 71.238045
118 1 1  0.000000 48.026794 29.015558 71.979965
119 1 1  0.000000 48.361473 28.908684 73.737022
120 1 1  0.000000 49.568867 29.119186 73.586494
121 1 1  0.000000 49.419716 27.838984 74.133842
122 1 1  0.000000 51.190197 27.828026 74.017090
123 1 1  0.000000 52.050152 26.846529 72.815033
124 1 1  0.000000 53.152863 27.034081 73.548676
125 1 1  0.000000 54.516998 27.089279 73.292000
126 1 1  0.000000 55.535385 26.330574 74.552338
127 1 1  0.000000 56.335415 28.063810 75.290184
128 1 1  0.000000 57.649899 29.007149 74.846031
129 1 1  0.000000 57.868843 27.724350 74.491928
130 1 1  0.000000 58.345554 28.090141 76.280167
131 1 1  0.000000 59.267208 28.226721 77.356583
132 1 1  0.000000 60.794533 29.018314 77.778610
133 1 1  0.000000 61.947079 29.980225 77.408134
134 1 1  0.000000 62.924114 28.476583 77.884354
135 1 1  0.000000 64.281197 27.470659 77.834549
136 1 1  0.000000 65.062263 26.974842 78.736557
137 1 1  0.000000 65.242073 28.247160 77.722427
138 1 1  0.000000 66.947380 27.956549 77.715012
139 1 1  0.000000 68.223534 27.857538 77.539558
140 1 1  0.000000 69.464432 28.096451 77.055054
141 1 1  0.000000 70.391693 29.349998 77.918503
142 1 1  0.000000 71.470749 28.371702 77.859352
143 1 1  0.000000 73.291306 28.503130 78.940231
144 1 1  0.000000 74.375633 28.221165 80.052368
145 1 1  0.000000 76.247917 28.663620 80.555321
146 1 1  0.000000 76.642387 30.486502 79.595650
147 1 1  0.000000 78.133949 30.238209 79.426979
148 1 1  0.000000 78.608955 28.926123 80.667068
149 1 1  0.000000 79.625343 31.003386 81.140701
150 1 1  0.000000 81.257851 30.765539 81.746964
151 1 1  0.000000 82.114647 31.126255 82.506386
152 1 1  0.000000 83.667976 30.334232 82.917168
153 1 1  0.000000 84.798569 31.144386 83.513382
154 1 1  0.000000 86.233246 30.391973 83.698502
155 1 1  0.000000 87.495720 30.627127 82.817177
156 1 1  0.000000 89.028152 30.735624 82.506271
157 1 1  0.000000 89.828087 31.702816 82.296196
158 1 1  0.000000 91.381393 31.077745 82.227623
159 1 1  0.000000 91.846992 32.062729 83.375870
160 1 1  0.000000 93.216263 31.402258 83.536018
161 1 1  0.000000 94.270134 30.210133 83.464470
162 1 1  0.000000 95.117729 28.767109 83.368874
163 1 1  0.000000 96.456863 29.254314 84.196358
164 1 1  0.000000 96.346916 28.529613 85.746414
165 1 1  0.000000 98.142242 29.682493 85.739594
166 1 1  0.000000 98.912712 30.793758 85.323036
167 1 1  0.000000 99.993126 29.946737 85.120651
168 1 1  0.000000 99.937828 31.718103 84.429565
169 1 1  0.000000 101.775848 31.410124 85.248955
170 1 1  0.000000 102.707184 30.857733 86.092140
171 1 1  0.000000 101.875031 31.359755 87.602798
172 1 1  0.000000 103.017273 31.200361 88.807610
173 1 1  0.000000 102.517494 30.154936 88.350792
174 1 1  0.000000 104.305557 29.208979 88.218430
175 1 1  0.000000 105.504890 28.153183 87.880486
176 1 1  0.000000 107.115364 27.642294 87.094589
177 1 1  0.000000 107.053711 26.632086 88.436966
178 1 1  0.000000 106.118004 25.535793 88.871559
179 1 1  0.000000 107.197151 25.043036 89.083969
180 1 1  0.000000 107.538185 23.449921 88.459526
181 1 1  0.000000 107.250977 22.517094 89.747047
182 1 1  0.000000 108.763359 22.446892 90.449318
183 1 1  0.000000 109.855919 23.106291 90.260498
184 1 1  0.000000 111.417198 23.430370 90.104179
185 1 1  0.000000 112.915527 24.292494 91.248314
186 1 1  0.000000 114.122978 25.647083 91.706955
187 1 1  0.000000 114.161217 25.023970 90.645187
188 1 1  0.000000 115.220284 23.946859 91.144066
189 1 1  0.000000 116.179497 24.282965 92.265427
190 1 1  0.000000 117.292610 25.596924 93.159973
191 1 1  0.000000 118.664391 24.350370 93.520721
192 1 1  0.000000 119.514549 24.887367 93.574188
193 1 1  0.000000 120.281975 24.833294 95.370819
194 1 1  0.000000 121.344734 24.159010 94.146011
195 1 1  0.000000 120.713196 24.489294 95.743813
196 1 1  0.000000 121.928894 24.816072 96.404900
197 1 1  0.000000 122.723854 23.660891 97.437729
198 1 1  0.000000 123.742279 24.437828 96.749649
199 1 1  0.000000 124.759300 24.789106 98.116470
200 1 1  0.000000 123.830177 23.733076 99.279190
201 2 1  0.000000 31.639015 53.440613 73.468529
202 2 1  0.000000 31.803164 52.097515 73.929054
203 2 1  0.000000 32.633572 50.455738 74.300636
204 2 1  0.000000 33.512020 49.166557 75.275780
205 2 1  0.000000 34.882301 49.526917 75.554886
206 2 1  0.000000 34.362823 51.057003 75.973587
207 2 1  0.000000 35.804005 51.187916 74.947563
208 2 1  0.000000 36.485653 51.104057 76.236771
209 2 1  0.000000 37.958836 51.713539 76.845917
210 2 1  0.000000 38.995266 52.340984 75.612511
211 2 1  0.000000 40.448502 52.868046 76.322403
212 2 1  0.000000 41.942558 52.150906 77.173042
213 2 1  0.000000 41.936546 51.205784 76.546432
214 2 1  0.000000 43.429108 50.264870 76.487511
215 2 1  0.000000 42.780914 48.757339 77.421318
216 2 1  0.000000 43.519524 48.291737 77.617943
217 2 1  0.000000 44.853741 49.185143 77.392746
218 2 1  0.000000 45.813030 48.476334 76.471924
219 2 1  0.000000 46.393906 48.751862 77.475441
220 2 1  0.000000 47.273651 47.456951 77.410332
221 2 1  0.000000 47.783710 46.669025 78.728271
222 2 1  0.000000 48.659786 47.600384 79.506905
223 2 1  0.000000 49.279247 46.716354 79.925446
224 2 1  0.000000 50.198715 46.144897 79.835091
225 2 1  0.000000 51.422886 47.465080 79.847946
226 2 1  0.000000 51.935974 48.844856 79.002205
227 2 1  0.000000 52.644611 47.617977 79.588966
228 2 1  0.000000 53.342823 47.277138 80.603455
229 2 1  0.000000 54.615112 46.284660 81.503937
230 2 1  0.000000 56.110287 46.353573 81.989601
231 2 1  0.000000 56.991085 45.899559 80.560013
232 2 1  0.000000 56.909454 47.055691 80.972748
233 2 1  0.000000 58.229591 47.431065 81.131279
234 2 1  0.000000 59.852711 47.975887 81.136856
235 2 1  0.000000 61.145878 48.958645 80.943726
236 2 1  0.000000 63.058781 48.959049 79.980484
237 2 1  0.000000 63.763248 48.417431 78.307236
238 2 1  0.000000 64.805382 49.186043 78.086617
239 2 1  0.000000 65.783546 49.378483 78.975243
240 2 1  0.000000 66.531425 48.132645 78.924057
241 2 1  0.000000 67.184357 47.599174 80.903381
242 2 1  0.000000 67.868462 46.604458 80.475220
243 2 1  0.000000 69.333992 45.708324 80.008469
244 2 1  0.000000 70.672073 46.370518 80.094780
245 2 1  0.000000 72.148575 47.464226 79.295898
246 2 1  0.000000 73.491318 46.297153 79.629837
247 2 1  0.000000 75.112083 46.403439 80.680473
248 2 1  0.000000 75.025505 45.025852 81.448235
249 2 1  0.000000 76.414932 44.863419 80.938499
250 2 1  0.000000 78.170746 44.347717 81.217209
251 2 1  0.000000 78.926590 45.530266 81.761086
252 2 1  0.000000 80.783913 44.989746 80.709961
253 2 1  0.000000 82.132927 45.184383 80.263542
254 2 1  0.000000 84.021614 45.251152 80.450935
255 2 1  0.000000 84.853905 46.735584 79.380844
256 2 1  0.000000 86.205963 47.255444 80.432144
257 2 1  0.000000 87.289597 47.627865 79.168419
258 2 1  0.000000 88.039139 47.277744 80.738274
259 2 1  0.000000 88.951004 46.132042 80.377106
260 2 1  0.000000 89.188850 45.161812 79.320358
261 2 1  0.000000 90.688560 46.262241 78.048065
262 2 1  0.000000 91.665932 47.549427 78.874786
263 2 1  0.000000 92.302574 45.701195 78.847260
264 2 1  0.000000 93.405952 44.971096 78.001389
265 2 1  0.000000 94.419540 44.107868 78.592812
266 2 1  0.000000 95.414993 43.908875 80.400871
267 2 1  0.000000 97.203125 44.508678 80.240181
268 2 1  0.000000 98.538963 45.081982 79.924828
269 2 1  0.000000 97.550041 45.668831 81.124878
270 2 1  0.000000 98.883446 47.215218 81.216652
271 2 1  0.000000 99.849190 48.762486 82.068901
272 2 1  0.000000 101.310791 49.556423 82.836983
273 2 1  0.000000 102.472328 49.629677 83.287949
274 2 1  0.000000 103.867134 48.448666 82.919144
275 2 1  0.000000 105.085579 47.393284 83.771294
276 2 1  0.000000 104.835564 47.074463 82.596313
277 2 1  0.000000 106.568436 47.069851 81.785599
278 2 1  0.000000 108.216751 45.980824 82.011131
279 2 1  0.000000 109.844795 46.055882 81.080528
280 2 1  0.000000 111.584953 45.890320 81.856560
281 2 1  0.000000 110.952805 46.101315 80.383430
282 2 1  0.000000 112.135117 45.337414 80.110077
283 2 1  0.000000 113.602104 45.104801 80.399750
284 2 1  0.000000 114.598686 43.628036 79.573105
285 2 1  0.000000 114.860405 43.074230 81.393578
286 2 1  0.000000 116.481598 44.005383 81.309792
287 2 1  0.000000 117.347191 44.727329 82.071556
288 2 1  0.000000 118.227997 46.224297 81.902100
289 2 1  0.000000 119.325150 47.310295 80.831749
290 2 1  0.000000 118.515182 48.699715 79.417137
291 2 1  0.000000 119.595894 48.114372 78.834579
292 2 1  0.000000 120.844719 48.941948 78.354614
293 2 1  0.000000 122.105957 48.338188 79.190071
294 2 1  0.000000 123.061531 49.475967 78.766930
295 2 1  0.000000 124.138863 48.773090 79.165459
296 2 1  0.000000 125.159874 48.203358 80.263535
297 2 1  0.000000 125.926033 49.363770 81.288948
298 2 1  0.000000 125.742355 49.974213 82.516052
299 2 1  0.000000 125.824722 50.234211 83.871445
300 2 1  0.000000 124.452003 49.269768 83.139542
301 3 1  0.000000 36.737064 55.745701 84.975052
302 3 1  0.000000 37.289982 56.376888 84.066719
303 3 1  0.000000 36.336433 57.419365 83.888138
304 3 1  0.000000 35.904228 59.130692 83.267830
305 3 1  0.000000 36.965038 60.028748 82.995529
306 3 1  0.000000 38.622486 60.160553 83.496338
307 3 1  0.000000 38.634270 60.668301 84.707191
308 3 1  0.000000 38.621647 59.051399 85.974525
309 3 1  0.000000 39.907257 58.534138 86.852562
310 3 1  0.000000 40.705383 58.102264 85.543243
311 3 1  0.000000 40.906799 58.255417 87.307808
312 3 1  0.000000 41.807087 59.425549 87.633774
313 3 1  0.000000 42.365868 61.218098 87.782631
314 3 1  0.000000 43.331863 62.520912 88.311218
315 3 1  0.000000 43.155476 62.665165 86.613510
316 3 1  0.000000 44.745247 62.555519 86.215538
317 3 1  0.000000 44.887241 63.244122 85.442528
318 3 1  0.000000 44.791946 62.583969 83.464516
319 3 1  0.000000 45.487694 63.716660 84.258339
320 3 1  0.000000 46.752457 63.678978 83.312439
321 3 1  0.000000 46.194881 64.865120 82.511528
322 3 1  0.000000 47.632839 65.245995 82.587395
323 3 1  0.000000 48.901775 63.944180 82.129646
324 3 1  0.000000 50.457279 64.718376 81.654808
325 3 1  0.000000 51.750187 63.664047 81.041405
326 3 1  0.000000 53.026501 64.184311 80.844475
327 3 1  0.000000 54.504658 65.057007 81.026672
328 3 1  0.000000 54.644428 66.493645 80.643349
329 3 1  0.000000 54.466354 66.118660 82.297050
330 3 1  0.000000 55.095196 66.504181 83.422600
331 3 1  0.000000 54.507851 65.772980 84.582329
332 3 1  0.000000 55.258419 65.513710 85.725479
333 3 1  0.000000 56.538372 64.302628 85.212334
334 3 1  0.000000 58.011314 64.296143 84.499413
335 3 1  0.000000 59.219036 65.453308 83.613678
336 3 1  0.000000 59.831005 66.327873 84.952103
337 3 1  0.000000 61.180714 65.728241 85.352005
338 3 1  0.000000 62.260494 64.526291 85.740166
339 3 1  0.000000 62.415188 63.303471 84.527397
340 3 1  0.000000 63.956516 64.461548 83.931763
341 3 1  0.000000 65.098419 63.803585 83.099686
342 3 1  0.000000 66.346237 63.344769 84.182678
343 3 1  0.000000 67.913635 63.128635 82.848785
344 3 1  0.000000 69.608032 62.582561 83.848755
345 3 1  0.000000 70.672424 63.099621 82.868736
346 3 1  0.000000 72.646729 63.099472 83.535423
347 3 1  0.000000 73.845146 64.073868 84.155174
348 3 1  0.000000 75.775818 64.008247 83.624321
349 3 1  0.000000 77.577187 64.257088 83.992943
350 3 1  0.000000 78.812546 64.287201 82.496117
351 3 1  0.000000 80.160431 63.545551 81.967865
352 3 1  0.000000 81.495216 63.011139 81.248238
353 3 1  0.000000 82.791870 62.943375 80.865517
354 3 1  0.000000 84.188499 62.413227 80.516266
355 3 1  0.000000 85.400803 61.226608 80.794975
356 3 1  0.000000 87.174385 61.232433 80.658295
357 3 1  0.000000 88.691803 60.984062 81.081032
358 3 1  0.000000 90.306969 59.577106 81.517906
359 3 1  0.000000 91.402275 59.238949 83.005180
360 3 1  0.000000 92.608284 58.973114 81.572456
361 3 1  0.000000 94.335243 59.149284 81.157471
362 3 1  0.000000 95.132492 60.434311 79.917847
363 3 1  0.000000 95.975937 61.727436 80.291000
364 3 1  0.000000 96.964462 63.010666 79.822159
365 3 1  0.000000 98.442764 62.074516 79.729904
366 3 1  0.000000 99.807678 60.637676 78.910950
367 3 1  0.000000 100.196297 59.599098 78.291397
368 3 1  0.000000 100.836044 60.975410 78.706467
369 3 1  0.000000 102.081299 60.132919 79.791344
370 3 1  0.000000 103.806999 59.020802 80.663063
371 3 1  0.000000 105.103996 58.661499 81.104607
372 3 1  0.000000 106.672623 59.170307 82.030861
373 3 1  0.000000 107.769234 60.128521 81.267578
374 3 1  0.000000 107.618187 58.863541 80.255646
375 3 1  0.000000 108.360123 57.430576 79.452309
376 3 1  0.000000 107.543541 56.922466 78.175827
377 3 1  0.000000 106.949974 56.240799 76.884720
378 3 1  0.000000 108.283066 57.345310 76.130959
379 3 1  0.000000 109.371643 55.887459 75.225288
380 3 1  0.000000 110.801140 56.511513 74.897850
381 3 1  0.000000 112.082458 57.293831 75.230652
382 3 1  0.000000 112.747444 58.232876 73.789917
383 3 1  0.000000 113.741844 57.286255 73.216446
384 3 1  0.000000 114.287239 55.539623 73.354706
385 3 1  0.000000 115.238762 56.098484 74.838936
386 3 1  0.000000 115.633034 55.124741 73.744102
387 3 1  0.000000 116.805214 56.082180 74.174545
388 3 1  0.000000 117.961548 57.141270 74.708488
389 3 1  0.000000 118.864143 57.538071 73.658577
390 3 1  0.000000 118.205696 58.974033 73.517105
391 3 1  0.000000 118.785950 61.305973 73.963020
392 3 1  0.000000 118.315147 62.864796 74.778664
393 3 1  0.000000 117.157967 63.719105 74.798241
394 3 1  0.000000 117.620567 65.026932 74.758194
395 3 1  0.000000 117.623238 65.261040 73.219994
396 3 1  0.000000 116.617661 64.441422 72.633430
397 3 1  0.000000 117.447441 65.761597 72.171349
398 3 1  0.000000 117.994865 67.276535 72.374962
399 3 1  0.000000 118.345909 68.217690 73.457634
400 3 1  0.000000 118.474716 69.608070 72.957703
401 4 1  0.000000 36.544476 82.241669 76.499535
402 4 1  0.000000 37.517315 81.677643 77.318977
403 4 1  0.000000 38.862831 80.238892 76.436333
404 4 1  0.000000 39.394897 79.948235 75.357590
405 4 1  0.000000 38.972725 79.446175 74.354385
406 4 1  0.000000 40.244259 79.595528 74.665527
407 4 1  0.000000 41.552498 78.414116 75.116013
408 4 1  0.000000 41.013767 77.205490 73.911842
409 4 1  0.000000 41.667347 76.022087 73.287186
410 4 1  0.000000 40.714268 74.945267 73.405251
411 4 1  0.000000 39.088753 73.636665 73.405251
412 4 1  0.000000 40.112530 73.022072 73.294647
413 4 1  0.000000 40.871628 72.330254 74.286438
414 4 1  0.000000 42.701077 72.291328 74.471939
415 4 1  0.000000 42.102222 72.289879 76.418053
416 4 1  0.000000 42.483795 73.876846 76.840897
417 4 1  0.000000 43.997940 73.068085 76.899765
418 4 1  0.000000 44.073547 71.811913 77.364075
419 4 1  0.000000 45.430912 71.040962 77.817055
420 4 1  0.000000 46.946922 71.313118 76.810646
421 4 1  0.000000 48.971260 71.908066 76.380836
422 4 1  0.000000 49.765285 71.607071 77.875992
423 4 1  0.000000 50.590031 72.466820 78.077339
424 4 1  0.000000 51.610397 71.205040 78.983299
425 4 1  0.000000 53.206146 70.473198 79.008858
426 4 1  0.000000 54.139206 69.636200 78.014381
427 4 1  0.000000 55.494633 70.335388 78.689232
428 4 1  0.000000 56.483440 71.906136 78.528282
429 4 1  0.000000 58.316231 71.379761 78.942154
430 4 1  0.000000 58.383442 73.078445 79.087959
431 4 1  0.000000 59.519302 73.411232 79.826172
432 4 1  0.000000 59.424274 73.433327 81.406471
433 4 1  0.000000 60.702686 72.563461 81.114655
434 4 1  0.000000 62.228661 72.217430 80.875519
435 4 1  0.000000 62.999043 73.499306 81.090965
436 4 1  0.000000 64.316116 73.551758 81.424797
437 4 1  0.000000 65.482368 73.671066 81.762619
438 4 1  0.000000 66.240677 72.975456 82.768311
439 4 1  0.000000 67.523399 73.700928 83.029716
440 4 1  0.000000 67.317787 74.636787 81.688980
441 4 1  0.000000 68.447006 74.963135 82.954155
442 4 1  0.000000 69.720963 75.395439 81.782288
443 4 1  0.000000 70.995621 75.406929 81.852676
444 4 1  0.000000 72.787003 76.531670 81.799599
445 4 1  0.000000 74.041954 76.153961 83.278824
446 4 1  0.000000 75.315063 77.377213 83.836441
447 4 1  0.000000 76.363358 76.850281 84.550186
448 4 1  0.000000 77.464264 77.408714 84.101944
449 4 1  0.000000 78.901611 77.084435 84.210312
450 4 1  0.000000 80.564583 77.064980 85.618050
451 4 1  0.000000 80.903755 77.814911 84.408669
452 4 1  0.000000 82.783752 77.741646 84.652176
453 4 1  0.000000 83.411255 76.402382 85.341377
454 4 1  0.000000 84.252235 76.629761 84.047447
455 4 1  0.000000 85.578346 78.163254 84.233780
456 4 1  0.000000 87.397560 77.083061 84.646172
457 4 1  0.000000 88.624710 77.616806 85.782578
458 4 1  0.000000 88.994499 77.036224 84.862930
459 4 1  0.000000 90.225441 77.098099 86.141632
460 4 1  0.000000 91.392006 75.656319 86.307411
461 4 1  0.000000 92.939125 75.809319 86.712852
462 4 1  0.000000 93.808609 76.445084 87.704506
463 4 1  0.000000 92.593819 75.992218 88.508247
464 4 1  0.000000 94.199684 76.206421 89.463158
465 4 1  0.000000 95.471764 75.095467 88.679115
466 4 1  0.000000 97.359550 74.795753 88.598839
467 4 1  0.000000 98.325531 75.132980 89.531357
468 4 1  0.000000 98.299850 74.196510 90.326744
469 4 1  0.000000 99.019737 73.964767 88.821434
470 4 1  0.000000 100.765274 73.941132 89.444855
471 4 1  0.000000 102.669121 74.235664 88.865654
472 4 1  0.000000 102.761620 73.732864 90.381378
473 4 1  0.000000 102.985786 72.183685 90.124718
474 4 1  0.000000 104.556595 71.535393 88.806900
475 4 1  0.000000 106.221565 72.031334 89.359131
476 4 1  0.000000 106.691162 73.458328 89.254974
477 4 1  0.000000 107.797119 74.754646 90.263489
478 4 1  0.000000 109.394714 75.068687 90.025986
479 4 1  0.000000 109.662903 75.949722 88.536942
480 4 1  0.000000 110.091248 74.896973 88.633682
481 4 1  0.000000 109.935432 73.493576 88.363022
482 4 1  0.000000 110.574921 72.702309 87.273956
483 4 1  0.000000 111.896004 73.235085 86.461739
484 4 1  0.000000 112.154892 72.719948 88.192062
485 4 1  0.000000 112.525185 70.913567 88.123337
486 4 1  0.000000 112.467079 69.155884 87.334961
487 4 1  0.000000 111.020119 68.104980 88.240799
488 4 1  0.000000 111.854523 66.552872 87.607079
489 4 1  0.000000 113.242043 65.914230 89.048950
490 4 1  0.000000 114.210083 65.732330 90.334938
491 4 1  0.000000 114.454369 66.775864 88.675697
492 4 1  0.000000 116.042770 67.733627 88.379776
493 4 1  0.000000 117.047935 67.108963 87.418640
494 4 1  0.000000 117.310341 66.334709 86.361839
495 4 1  0.000000 118.728386 66.445076 86.350967
496 4 1  0.000000 119.198471 67.029617 87.807716
497 4 1  0.000000 120.713181 68.117874 87.281769
498 4 1  0.000000 120.338722 69.039406 88.651390
499 4 1  0.000000 121.464828 68.025772 88.833717
500 4 1  0.000000 122.838387 67.670227 87.985619
501 5 1  0.000000 41.171490 91.230110 67.126465
502 5 1  0.000000 40.686302 92.048195 67.733025
503 5 1  0.000000 39.354191 91.398010 68.012215
504 5 1  0.000000 38.980743 91.196907 69.663193
505 5 1  0.000000 39.633747 90.544212 70.971748
506 5 1  0.000000 41.128807 89.752846 71.616264
507 5 1  0.000000 42.137001 91.319443 72.662102
508 5 1  0.000000 42.525360 91.716698 74.485626
509 5 1  0.000000 42.420341 92.851570 75.616913
510 5 1  0.000000 43.898129 92.087509 75.171150
511 5 1  0.000000 45.220272 93.173965 74.749222
512 5 1  0.000000 45.679935 93.018524 73.286301
513 5 1  0.000000 46.598686 92.726921 71.760048
514 5 1  0.000000 47.698681 91.931572 72.520187
515 5 1  0.000000 47.421032 90.240501 72.342751
516 5 1  0.000000 46.953842 89.268539 73.293221
517 5 1  0.000000 47.784519 87.976784 74.034729
518 5 1  0.000000 46.884750 86.896767 74.719460
519 5 1  0.000000 48.275063 86.327660 74.655548
520 5 1  0.000000 49.782455 86.618889 75.124054
521 5 1  0.000000 51.263363 86.044250 75.575920
522 5 1  0.000000 51.343739 84.379898 76.273155
523 5 1  0.000000 52.445908 83.789932 75.795006
524 5 1  0.000000 53.930439 83.368805 75.135086
525 5 1  0.000000 54.031158 82.991104 77.054916
526 5 1  0.000000 54.759018 81.636818 76.040329
527 5 1  0.000000 55.916828 81.816391 76.510139
528 5 1  0.000000 56.900242 82.907280 76.451439
529 5 1  0.000000 58.341763 84.011787 77.236748
530 5 1  0.000000 59.081234 82.955589 76.010811
531 5 1  0.000000 59.433098 82.533188 74.662895
532 5 1  0.000000 60.781570 81.774292 74.042526
533 5 1  0.000000 61.469364 80.148483 73.347702
534 5 1  0.000000 62.610661 81.126816 74.504379
535 5 1  0.000000 63.434723 81.989075 74.625252
536 5 1  0.000000 65.179161 81.347389 74.216377
537 5 1  0.000000 66.524162 83.030739 73.977036
538 5 1  0.000000 67.895233 83.872978 74.076332
539 5 1  0.000000 68.909607 83.275520 74.840889
540 5 1  0.000000 70.055008 84.067322 75.291679
541 5 1  0.000000 71.340317 83.922661 74.082176
542 5 1  0.000000 73.024933 83.504974 74.166626
543 5 1  0.000000 74.717247 83.718246 73.926552
544 5 1  0.000000 76.081474 84.333290 72.768143
545 5 1  0.000000 77.263588 83.146828 74.221710
546 5 1  0.000000 79.136398 83.325844 74.517029
547 5 1  0.000000 80.250496 82.712723 74.631020
548 5 1  0.000000 81.554077 82.668602 74.752251
549 5 1  0.000000 83.403473 82.610199 75.678787
550 5 1  0.000000 85.023521 82.233528 75.011383
551 5 1  0.000000 85.054398 81.044754 76.531906
552 5 1  0.000000 86.287270 82.367241 75.990921
553 5 1  0.000000 88.390846 82.070297 76.085091
554 5 1  0.000000 89.896172 83.060211 75.282829
555 5 1  0.000000 91.211563 84.164825 76.186073
556 5 1  0.000000 92.909081 83.961784 76.543243
557 5 1  0.000000 94.371056 82.773109 75.636993
558 5 1  0.000000 95.808128 82.059631 74.674332
559 5 1  0.000000 96.714890 82.135986 73.240631
560 5 1  0.000000 97.515167 82.110336 74.828270
561 5 1  0.000000 98.641197 81.836189 73.463310
562 5 1  0.000000 99.100044 81.963631 74.946770
563 5 1  0.000000 100.271324 80.940979 75.436195
564 5 1  0.000000 99.722687 80.514099 77.159409
565 5 1  0.000000 100.961494 80.972504 76.860023
566 5 1  0.000000 102.234032 81.965996 77.337936
567 5 1  0.000000 103.787125 81.921417 77.744247
568 5 1  0.000000 104.934975 83.389069 78.538116
569 5 1  0.000000 106.629440 83.142395 78.608620
570 5 1  0.000000 107.027969 83.633080 76.952347
571 5 1  0.000000 107.747643 84.918236 76.770348
572 5 1  0.000000 109.389114 84.942749 76.847969
573 5 1  0.000000 111.444450 84.890518 76.770096
574 5 1  0.000000 112.953056 85.896721 77.235306
575 5 1  0.000000 114.064270 86.103622 76.058052
576 5 1  0.000000 114.831535 87.443077 75.799576
577 5 1  0.000000 115.653618 87.004776 77.352974
578 5 1  0.000000 115.731750 87.026276 79.284515
579 5 1  0.000000 117.779778 86.904152 78.974808
580 5 1  0.000000 118.034622 88.222137 79.567955
581 5 1  0.000000 119.321648 89.565620 79.995285
582 5 1  0.000000 120.869881 90.282211 80.628143
583 5 1  0.000000 120.613678 91.611465 79.481758
584 5 1  0.000000 121.340637 91.045082 78.533463
585 5 1  0.000000 123.093689 90.819046 79.394859
586 5 1  0.000000 124.583305 90.173187 79.758110
587 5 1  0.000000 124.817253 89.830482 81.752670
588 5 1  0.000000 126.229057 90.529564 82.630234
589 5 1  0.000000 124.776184 90.079613 83.015854
590 5 1  0.000000 125.163872 88.930183 84.200050
591 5 1  0.000000 126.339989 88.866997 85.548470
592 5 1  0.000000 126.113564 87.830643 86.948395
593 5 1  0.000000 126.125145 87.138405 88.921555
594 5 1  0.000000 125.849495 88.094292 90.133255
595 5 1  0.000000 126.940361 88.432938 90.740395
596 5 1  0.000000 126.356926 89.963455 91.191505
597 5 1  0.000000 126.140808 91.102989 92.632935
598 5 1  0.000000 127.209412 92.024597 91.593643
599 5 1  0.000000 127.845062 92.969231 89.763626
600 5 1  0.000000 127.561836 94.772285 90.450005
601 6 1  0.000000 40.785160 89.588783 89.995453
602 6 1  0.000000 40.444561 91.099625 89.355194
603 6 1  0.000000 41.814117 90.297943 89.502068
604 6 1  0.000000 43.136761 90.847298 90.208939
605 6 1  0.000000 44.417065 89.896446 91.535782
606 6 1  0.000000 45.071529 90.384735 92.592949
607 6 1  0.000000 46.398132 90.371704 91.979912
608 6 1  0.000000 46.139751 88.743553 92.870331
609 6 1  0.000000 47.177212 88.681870 92.122215
610 6 1  0.000000 48.960556 89.273445 92.394150
611 6 1  0.000000 50.513313 90.086617 92.613144
612 6 1  0.000000 51.465881 90.711502 93.257935
613 6 1  0.000000 52.841454 89.678108 94.552765
614 6 1  0.000000 53.174450 91.101440 95.761742
615 6 1  0.000000 54.270134 90.927345 96.713493