Created with TaichiMD

1000 atoms
990 bonds
  0 angles
  0 dihedrals
  0 impropers

1 atom types
1 bond types
0 angle types
0 dihedral types
0 improper types

-80.00000  80.00000 xlo xhi
-80.00000  80.00000 ylo yhi
-80.00000  80.00000 zlo zhi

Masses

1 10.0000

Atoms

  1 0 1  0.000000 85.699898 -8.388292 83.689140
  2 0 1  0.000000 86.017876 -8.061774 81.852905
  3 0 1  0.000000 86.336311 -7.092666 80.342094
  4 0 1  0.000000 86.613724 -5.774269 79.407249
  5 0 1  0.000000 85.546120 -5.206086 78.337799
  6 0 1  0.000000 86.102531 -3.855983 77.922607
  7 0 1  0.000000 84.984215 -2.789910 77.316734
  8 0 1  0.000000 85.163750 -1.456016 78.775810
  9 0 1  0.000000 85.041466 -0.824297 77.193794
 10 0 1  0.000000 83.895576 -0.456994 76.219955
 11 0 1  0.000000 83.996605  1.468338 75.776161
 12 0 1  0.000000 84.176422  1.976327 74.523918
 13 0 1  0.000000 84.308975  3.343705 75.135292
 14 0 1  0.000000 85.394150  2.891475 76.209831
 15 0 1  0.000000 86.765221  3.702515 77.357399
 16 0 1  0.000000 85.580704  4.285505 78.888123
 17 0 1  0.000000 84.788910  5.309307 79.510124
 18 0 1  0.000000 85.950348  5.609855 81.060890
 19 0 1  0.000000 87.211365  6.182073 81.231812
 20 0 1  0.000000 86.408615  7.426661 82.348053
 21 0 1  0.000000 86.004074  7.909925 80.144180
 22 0 1  0.000000 85.224266  9.255563 79.064499
 23 0 1  0.000000 84.892555  9.060208 78.068977
 24 0 1  0.000000 84.877655 10.807151 78.093895
 25 0 1  0.000000 86.647896 11.660681 77.095093
 26 0 1  0.000000 85.997719 11.353587 75.509056
 27 0 1  0.000000 87.032951 11.997519 74.834290
 28 0 1  0.000000 88.025467 11.614608 73.507462
 29 0 1  0.000000 89.494667 10.306003 73.350082
 30 0 1  0.000000 88.076370  9.149698 72.872437
 31 0 1  0.000000 87.870995  7.418348 72.870331
 32 0 1  0.000000 88.738060  7.890491 71.751198
 33 0 1  0.000000 87.229790  7.055870 71.118958
 34 0 1  0.000000 89.228004  6.317025 70.760857
 35 0 1  0.000000 90.363373  6.596201 70.200493
 36 0 1  0.000000 91.665749  6.514437 68.854248
 37 0 1  0.000000 91.571892  5.198607 67.914696
 38 0 1  0.000000 90.912010  5.334017 66.077507
 39 0 1  0.000000 91.012650  5.242489 64.735428
 40 0 1  0.000000 90.367119  7.221564 64.174500
 41 0 1  0.000000 89.980705  9.026711 63.759548
 42 0 1  0.000000 89.663101  9.368747 61.813808
 43 0 1  0.000000 87.756020  9.908408 61.389565
 44 0 1  0.000000 87.096153  8.198833 60.510677
 45 0 1  0.000000 86.483879  9.578526 60.100895
 46 0 1  0.000000 86.132881  8.232747 59.902325
 47 0 1  0.000000 85.574997  7.811106 58.427124
 48 0 1  0.000000 84.056297  8.129473 57.792442
 49 0 1  0.000000 83.489151  9.446007 58.328960
 50 0 1  0.000000 83.483574 11.143216 57.231117
 51 0 1  0.000000 83.323433 11.930674 55.236000
 52 0 1  0.000000 84.319313 13.014327 55.358177
 53 0 1  0.000000 84.977341 13.880359 55.010788
 54 0 1  0.000000 86.421829 15.099888 53.443428
 55 0 1  0.000000 86.252663 15.090825 52.316643
 56 0 1  0.000000 86.509514 15.106884 50.816135
 57 0 1  0.000000 87.570145 15.590119 49.722939
 58 0 1  0.000000 86.288261 16.158253 49.667435
 59 0 1  0.000000 84.611732 16.675074 49.386768
 60 0 1  0.000000 83.702850 17.044024 50.240669
 61 0 1  0.000000 83.798111 18.064852 50.093754
 62 0 1  0.000000 82.783821 18.897129 50.305820
 63 0 1  0.000000 82.095901 20.269638 49.395042
 64 0 1  0.000000 81.532257 21.912731 49.391724
 65 0 1  0.000000 80.798073 23.430405 49.606178
 66 0 1  0.000000 79.028336 23.347940 49.849422
 67 0 1  0.000000 78.176445 24.203442 48.825237
 68 0 1  0.000000 76.281868 24.232744 48.463505
 69 0 1  0.000000 75.092766 24.235733 48.118065
 70 0 1  0.000000 73.778008 24.575127 47.837875
 71 0 1  0.000000 74.253716 25.960098 49.481796
 72 0 1  0.000000 74.069267 27.371918 50.981075
 73 0 1  0.000000 74.718079 27.809975 49.658237
 74 0 1  0.000000 76.370796 29.434414 49.793179
 75 0 1  0.000000 76.355255 28.829527 48.413746
 76 0 1  0.000000 78.031303 28.274601 49.028080
 77 0 1  0.000000 79.612831 27.420776 48.690437
 78 0 1  0.000000 80.751862 27.281054 47.734310
 79 0 1  0.000000 81.020164 27.827656 49.333557
 80 0 1  0.000000 82.415009 27.433376 49.760010
 81 0 1  0.000000 83.480515 28.491760 49.278404
 82 0 1  0.000000 83.205887 29.396782 48.020657
 83 0 1  0.000000 83.770409 30.690281 47.866310
 84 0 1  0.000000 82.612900 31.990211 47.796566
 85 0 1  0.000000 82.965729 33.997406 47.089958
 86 0 1  0.000000 81.547333 33.254982 47.717022
 87 0 1  0.000000 80.580078 33.053944 45.756508
 88 0 1  0.000000 79.309219 33.171803 44.607002
 89 0 1  0.000000 79.948921 32.237957 42.592480
 90 0 1  0.000000 79.953590 30.385883 44.352654
 91 0 1  0.000000 80.738998 28.742367 43.975361
 92 0 1  0.000000 79.260963 28.516136 43.976654
 93 0 1  0.000000 78.829659 27.314116 42.765141
 94 0 1  0.000000 79.539154 26.028835 41.753674
 95 0 1  0.000000 79.481361 27.111450 40.893944
 96 0 1  0.000000 77.731888 26.629606 40.306713
 97 0 1  0.000000 77.964394 27.450737 38.977921
 98 0 1  0.000000 76.679207 29.121994 39.717789
 99 0 1  0.000000 76.409012 29.176594 37.957714
100 0 1  0.000000 77.535149 30.257887 36.828377
101 1 1  0.000000 79.730896 11.982546 79.354034
102 1 1  0.000000 79.830765 13.212640 78.790329
103 1 1  0.000000 80.553749 14.515303 77.557625
104 1 1  0.000000 80.202690 14.713947 79.637543
105 1 1  0.000000 80.898430 15.712812 78.630600
106 1 1  0.000000 80.560196 17.633377 79.709892
107 1 1  0.000000 79.155609 19.109100 80.426147
108 1 1  0.000000 77.410233 18.018270 80.819984
109 1 1  0.000000 78.384430 19.685810 80.942406
110 1 1  0.000000 78.412422 21.460642 80.391113
111 1 1  0.000000 79.781898 22.285357 80.330795
112 1 1  0.000000 79.779182 22.627464 81.425415
113 1 1  0.000000 80.325951 23.040285 83.123756
114 1 1  0.000000 81.661316 21.728888 82.338226
115 1 1  0.000000 83.558739 22.213469 82.483978
116 1 1  0.000000 83.133949 22.749416 83.628983
117 1 1  0.000000 83.840523 22.444126 82.141121
118 1 1  0.000000 84.701645 21.693096 83.719673
119 1 1  0.000000 85.085320 19.946766 84.008675
120 1 1  0.000000 83.782829 19.452911 84.750275
121 1 1  0.000000 84.032288 17.720467 86.151787
122 1 1  0.000000 84.728508 17.727423 87.295685
123 1 1  0.000000 84.517029 17.000153 89.208954
124 1 1  0.000000 84.704376 18.428427 89.940987
125 1 1  0.000000 83.312729 19.032181 90.802963
126 1 1  0.000000 83.861176 20.579538 92.031898
127 1 1  0.000000 83.374832 21.508341 93.162735
128 1 1  0.000000 83.488358 21.649267 95.224350
129 1 1  0.000000 81.667351 21.468054 96.401543
130 1 1  0.000000 81.175850 21.557005 98.000374
131 1 1  0.000000 79.210953 21.142523 98.425339
132 1 1  0.000000 78.313393 20.634716 98.174385
133 1 1  0.000000 76.962021 20.870363 98.102364
134 1 1  0.000000 76.310730 20.301809 99.416946
135 1 1  0.000000 74.551826 20.553442 99.649651
136 1 1  0.000000 73.076836 19.887451 99.508713
137 1 1  0.000000 71.895416 19.685186 100.299370
138 1 1  0.000000 70.471375 20.060350 100.994499
139 1 1  0.000000 69.328629 20.752132 102.011055
140 1 1  0.000000 67.903580 20.667522 102.850342
141 1 1  0.000000 68.146164 21.151073 104.115173
142 1 1  0.000000 67.097961 20.200289 103.226372
143 1 1  0.000000 66.960243 20.027096 104.341629
144 1 1  0.000000 65.344475 20.701361 104.588455
145 1 1  0.000000 63.240124 21.572620 105.236954
146 1 1  0.000000 61.737629 22.615183 105.851341
147 1 1  0.000000 60.585060 23.990131 106.416267
148 1 1  0.000000 60.108116 24.566767 104.384270
149 1 1  0.000000 58.853477 25.645397 104.223991
150 1 1  0.000000 58.400311 25.725649 105.256378
151 1 1  0.000000 58.487591 26.958382 104.217346
152 1 1  0.000000 56.887161 27.915470 105.197189
153 1 1  0.000000 56.383316 27.620129 107.395706
154 1 1  0.000000 56.054901 26.509832 107.827896
155 1 1  0.000000 54.791580 26.385494 108.359619
156 1 1  0.000000 54.872047 24.832602 107.590530
157 1 1  0.000000 54.182198 24.867924 106.373161
158 1 1  0.000000 53.510567 25.360094 104.647598
159 1 1  0.000000 52.056488 25.659796 105.324020
160 1 1  0.000000 51.903622 24.147097 104.386620
161 1 1  0.000000 50.540192 23.880209 104.886330
162 1 1  0.000000 48.828197 25.065405 105.160286
163 1 1  0.000000 48.916309 22.984646 105.324738
164 1 1  0.000000 49.558811 21.304903 105.289970
165 1 1  0.000000 50.265713 20.554291 106.774033
166 1 1  0.000000 50.296753 19.443214 108.005348
167 1 1  0.000000 49.175941 19.417971 108.565628
168 1 1  0.000000 50.232777 19.506535 107.997810
169 1 1  0.000000 49.380829 19.175400 109.406166
170 1 1  0.000000 48.238983 18.501066 110.656342
171 1 1  0.000000 49.606564 18.813251 112.175598
172 1 1  0.000000 48.825829 19.633726 113.244263
173 1 1  0.000000 47.307640 19.839228 113.479607
174 1 1  0.000000 46.406593 21.462078 113.440788
175 1 1  0.000000 44.682434 22.432623 113.066010
176 1 1  0.000000 43.377289 23.035997 113.127365
177 1 1  0.000000 42.619743 22.342127 113.600471
178 1 1  0.000000 43.397179 21.144388 112.978271
179 1 1  0.000000 43.511150 20.824677 110.601311
180 1 1  0.000000 42.358101 19.478310 110.682701
181 1 1  0.000000 43.112541 17.726849 110.410789
182 1 1  0.000000 41.549801 17.468140 109.209717
183 1 1  0.000000 39.787117 16.949442 108.493004
184 1 1  0.000000 39.187927 18.032925 109.510262
185 1 1  0.000000 39.104610 17.808350 110.904076
186 1 1  0.000000 37.600395 18.594677 111.059326
187 1 1  0.000000 38.263943 19.134298 112.490150
188 1 1  0.000000 38.326973 20.832884 112.632088
189 1 1  0.000000 37.879887 22.246031 113.128685
190 1 1  0.000000 37.179531 21.765139 112.214836
191 1 1  0.000000 37.147923 23.313063 111.480354
192 1 1  0.000000 35.404503 22.819384 111.434944
193 1 1  0.000000 33.550629 22.538654 111.509674
194 1 1  0.000000 32.643059 23.197880 110.670937
195 1 1  0.000000 30.731764 23.379917 110.374901
196 1 1  0.000000 30.560049 22.114975 109.297447
197 1 1  0.000000 29.524076 20.438017 109.292236
198 1 1  0.000000 30.903128 20.868809 109.516495
199 1 1  0.000000 32.094086 20.914433 107.998238
200 1 1  0.000000 31.467478 18.999022 107.609268
201 2 1  0.000000 57.191940 50.195927 88.152695
202 2 1  0.000000 56.668362 48.637672 87.736870
203 2 1  0.000000 58.088188 48.619938 86.139915
204 2 1  0.000000 58.228859 50.011566 85.370216
205 2 1  0.000000 57.836582 51.367512 84.959892
206 2 1  0.000000 57.916916 53.149498 84.277611
207 2 1  0.000000 58.922562 54.666744 83.815178
208 2 1  0.000000 60.744152 54.619686 83.227150
209 2 1  0.000000 61.522598 54.678429 81.847412
210 2 1  0.000000 61.758869 56.194809 80.154694
211 2 1  0.000000 62.516193 55.372501 79.375526
212 2 1  0.000000 63.154095 56.084908 79.378876
213 2 1  0.000000 63.514099 55.097858 78.273987
214 2 1  0.000000 65.116791 54.429371 77.610451
215 2 1  0.000000 64.406982 55.079254 76.710045
216 2 1  0.000000 65.329613 55.388466 75.457809
217 2 1  0.000000 66.124275 54.408436 74.182892
218 2 1  0.000000 64.272362 53.604675 73.870285
219 2 1  0.000000 64.770920 52.217823 72.662895
220 2 1  0.000000 63.441116 52.412209 71.554779
221 2 1  0.000000 63.475368 50.977268 71.646675
222 2 1  0.000000 63.521881 49.846100 73.182968
223 2 1  0.000000 62.445805 49.678692 71.818794
224 2 1  0.000000 63.045197 48.796562 70.981529
225 2 1  0.000000 63.729321 47.571167 70.372513
226 2 1  0.000000 63.927368 46.417484 69.857826
227 2 1  0.000000 64.613426 44.531303 69.152023
228 2 1  0.000000 65.660324 45.062408 68.098984
229 2 1  0.000000 66.471107 46.949074 67.034248
230 2 1  0.000000 68.220306 46.356739 67.237755
231 2 1  0.000000 69.197441 44.523151 67.414124
232 2 1  0.000000 68.807472 43.907104 65.807533
233 2 1  0.000000 69.856247 44.059341 65.026901
234 2 1  0.000000 69.505829 43.511410 62.651001
235 2 1  0.000000 69.463127 45.134315 61.939144
236 2 1  0.000000 70.695732 44.166023 61.288269
237 2 1  0.000000 69.430595 42.997082 60.439625
238 2 1  0.000000 68.092384 42.009445 59.787186
239 2 1  0.000000 69.825066 41.773331 59.679646
240 2 1  0.000000 68.800858 40.602116 59.792351
241 2 1  0.000000 68.155380 38.931225 59.485569
242 2 1  0.000000 67.214157 38.570126 60.104397
243 2 1  0.000000 67.386307 39.472919 61.060272
244 2 1  0.000000 65.698799 40.852287 61.296532
245 2 1  0.000000 63.728527 41.055397 61.018646
246 2 1  0.000000 63.510132 42.495445 62.098164
247 2 1  0.000000 62.903885 43.065285 64.141373
248 2 1  0.000000 61.961407 43.671215 65.330910
249 2 1  0.000000 61.130993 42.611012 67.478569
250 2 1  0.000000 61.792976 42.728481 69.287743
251 2 1  0.000000 60.860508 41.126526 69.205513
252 2 1  0.000000 60.136135 41.163818 70.324997
253 2 1  0.000000 59.323769 41.318542 72.013054
254 2 1  0.000000 60.314629 41.805664 72.772026
255 2 1  0.000000 60.421471 43.167557 74.051712
256 2 1  0.000000 60.247723 43.881905 75.658081
257 2 1  0.000000 61.485588 43.160503 76.835571
258 2 1  0.000000 62.121826 44.457714 77.881912
259 2 1  0.000000 63.127537 44.705547 79.227074
260 2 1  0.000000 62.130665 44.832558 79.518738
261 2 1  0.000000 61.384106 44.075199 80.144356
262 2 1  0.000000 60.869915 43.755703 81.422943
263 2 1  0.000000 60.414822 45.008720 82.446793
264 2 1  0.000000 61.687931 45.526981 82.242317
265 2 1  0.000000 63.060516 46.350880 82.097893
266 2 1  0.000000 65.040321 46.665840 81.565102
267 2 1  0.000000 66.578209 47.084484 83.216576
268 2 1  0.000000 68.461349 47.337505 83.544701
269 2 1  0.000000 69.734962 46.514484 83.960403
270 2 1  0.000000 69.509651 45.375198 83.667068
271 2 1  0.000000 68.571594 44.665440 84.723282
272 2 1  0.000000 70.324768 44.944118 85.010681
273 2 1  0.000000 70.544357 44.715298 86.786415
274 2 1  0.000000 71.857796 43.203339 87.968025
275 2 1  0.000000 72.930527 42.739166 88.794899
276 2 1  0.000000 73.839935 41.117176 89.942017
277 2 1  0.000000 74.481277 39.875980 90.763672
278 2 1  0.000000 75.950371 38.850853 91.816154
279 2 1  0.000000 76.879478 37.670769 91.139862
280 2 1  0.000000 77.483078 36.161682 90.827194
281 2 1  0.000000 79.414429 36.028603 90.902237
282 2 1  0.000000 80.678925 34.923550 92.009056
283 2 1  0.000000 81.244133 34.330566 93.237991
284 2 1  0.000000 81.880234 35.756287 94.309067
285 2 1  0.000000 81.820732 35.029213 95.980972
286 2 1  0.000000 83.438492 35.570095 95.290794
287 2 1  0.000000 83.223251 36.437057 97.110809
288 2 1  0.000000 81.989990 36.077625 97.621101
289 2 1  0.000000 82.263016 35.023029 99.534622
290 2 1  0.000000 81.868591 37.067692 99.692543
291 2 1  0.000000 81.141441 37.382240 101.384125
292 2 1  0.000000 82.898079 37.999004 101.385422
293 2 1  0.000000 83.455734 38.735260 103.050102
294 2 1  0.000000 84.616631 39.963760 103.996185
295 2 1  0.000000 83.718765 41.658176 104.042107
296 2 1  0.000000 83.675156 43.757366 103.751114
297 2 1  0.000000 82.448296 44.174873 102.363243
298 2 1  0.000000 81.346176 44.614380 103.221596
299 2 1  0.000000 80.251205 45.314983 104.447716
300 2 1  0.000000 80.708794 44.317440 103.575836
301 3 1  0.000000 78.983826 69.813438 107.925972
302 3 1  0.000000 79.988396 69.860878 106.291695
303 3 1  0.000000 81.524330 67.873566 106.300865
304 3 1  0.000000 82.555367 67.250565 105.762794
305 3 1  0.000000 82.541504 68.517105 104.364532
306 3 1  0.000000 83.822128 68.156425 104.508820
307 3 1  0.000000 83.066040 67.247673 103.953117
308 3 1  0.000000 82.297440 67.343025 102.139748
309 3 1  0.000000 82.149902 68.170151 100.143478
310 3 1  0.000000 81.009613 67.925346 99.503426
311 3 1  0.000000 82.632469 67.009483 98.463448
312 3 1  0.000000 83.553413 66.946892 99.094002
313 3 1  0.000000 82.682129 65.565475 97.933861
314 3 1  0.000000 84.394104 64.905113 97.356537
315 3 1  0.000000 85.512581 64.565208 97.844009
316 3 1  0.000000 87.280296 65.189957 97.968147
317 3 1  0.000000 88.888885 65.319221 96.920563
318 3 1  0.000000 90.035164 65.645546 98.117630
319 3 1  0.000000 90.881363 67.235565 97.757317
320 3 1  0.000000 91.315651 65.456795 97.532494
321 3 1  0.000000 92.512978 66.977890 96.528679
322 3 1  0.000000 92.770844 68.126198 96.916374
323 3 1  0.000000 94.143082 67.238724 95.671532
324 3 1  0.000000 94.455963 67.998085 96.229134
325 3 1  0.000000 93.970467 68.762245 94.678894
326 3 1  0.000000 94.455223 68.162079 93.289894
327 3 1  0.000000 93.286873 68.761932 92.918861
328 3 1  0.000000 91.866005 69.309326 91.695190
329 3 1  0.000000 90.756195 69.672768 92.507790
330 3 1  0.000000 90.608437 68.717804 91.289444
331 3 1  0.000000 89.465431 67.956978 89.929817
332 3 1  0.000000 88.313339 67.225800 89.197144
333 3 1  0.000000 87.415176 68.487854 89.171707
334 3 1  0.000000 86.688736 68.985695 88.083084
335 3 1  0.000000 85.566856 68.778038 87.490913
336 3 1  0.000000 84.190697 68.136169 86.298363
337 3 1  0.000000 84.087830 68.298943 84.543358
338 3 1  0.000000 83.340393 68.462852 85.679985
339 3 1  0.000000 82.020683 69.633705 84.472313
340 3 1  0.000000 83.216110 69.633171 83.170662
341 3 1  0.000000 83.215530 69.418190 81.287041
342 3 1  0.000000 81.531693 68.357376 80.623894
343 3 1  0.000000 80.318802 68.697426 80.883965
344 3 1  0.000000 79.373711 68.313133 79.359261
345 3 1  0.000000 79.124077 66.836441 77.784966
346 3 1  0.000000 77.657234 65.753670 77.263382
347 3 1  0.000000 75.807053 67.294434 76.271461
348 3 1  0.000000 74.468697 68.392426 76.780632
349 3 1  0.000000 73.114265 68.980637 77.418457
350 3 1  0.000000 73.221344 70.894791 76.922546
351 3 1  0.000000 72.062973 72.224174 76.146004
352 3 1  0.000000 71.686676 72.679825 74.972221
353 3 1  0.000000 70.708061 71.556458 74.245598
354 3 1  0.000000 69.351936 72.220016 73.222893
355 3 1  0.000000 68.038353 71.887199 73.182373
356 3 1  0.000000 67.442093 71.332047 74.413322
357 3 1  0.000000 66.257156 72.462021 73.831284
358 3 1  0.000000 65.496666 72.700493 72.495499
359 3 1  0.000000 64.224968 71.730827 72.245697
360 3 1  0.000000 63.254166 71.620621 70.058067
361 3 1  0.000000 62.175026 72.643433 68.817574
362 3 1  0.000000 61.007858 71.641327 68.034599
363 3 1  0.000000 62.113438 72.253464 67.260330
364 3 1  0.000000 61.910816 71.851921 65.839783
365 3 1  0.000000 60.633526 70.804726 64.898560
366 3 1  0.000000 60.477390 69.725258 63.761337
367 3 1  0.000000 60.420914 70.313995 62.569366
368 3 1  0.000000 59.198406 70.397972 61.963226
369 3 1  0.000000 58.630329 68.620277 62.116402
370 3 1  0.000000 57.792648 67.428749 62.759560
371 3 1  0.000000 58.646687 68.207672 61.030418
372 3 1  0.000000 57.122692 69.104027 60.066387
373 3 1  0.000000 55.742168 67.704361 61.015079
374 3 1  0.000000 54.651958 67.384804 61.590763
375 3 1  0.000000 54.388733 68.015564 62.938725
376 3 1  0.000000 54.142277 67.819443 64.492043
377 3 1  0.000000 52.954800 66.759346 65.170280
378 3 1  0.000000 51.593895 66.317741 65.882263
379 3 1  0.000000 50.735912 65.016434 65.762749
380 3 1  0.000000 49.172318 64.573135 67.187370
381 3 1  0.000000 50.875977 64.181129 67.662415
382 3 1  0.000000 49.374874 65.128166 67.635551
383 3 1  0.000000 48.311970 66.717842 68.131020
384 3 1  0.000000 49.195118 67.820168 67.970909
385 3 1  0.000000 48.459431 69.618279 67.042160
386 3 1  0.000000 49.230511 71.052147 67.661247
387 3 1  0.000000 49.048943 72.554329 67.336952
388 3 1  0.000000 49.199085 73.058510 68.968842
389 3 1  0.000000 50.521141 73.645615 70.544128
390 3 1  0.000000 51.684288 73.206367 69.869530
391 3 1  0.000000 53.059105 74.025284 70.569153
392 3 1  0.000000 52.783005 72.615257 71.246445
393 3 1  0.000000 54.001431 71.614922 70.634186
394 3 1  0.000000 55.487656 71.973091 71.693024
395 3 1  0.000000 57.167667 72.442955 71.485710
396 3 1  0.000000 56.616009 73.482445 70.733383
397 3 1  0.000000 57.078934 75.388794 71.234642
398 3 1  0.000000 57.319321 76.052940 72.276886
399 3 1  0.000000 56.492496 77.458694 71.287979
400 3 1  0.000000 57.691135 77.910629 71.529640
401 4 1  0.000000 104.027405 68.598953 80.078316
402 4 1  0.000000 105.122818 67.344650 81.124260
403 4 1  0.000000 104.086143 68.632957 81.905266
404 4 1  0.000000 104.915359 70.331131 81.967072
405 4 1  0.000000 105.148499 71.939697 81.741158
406 4 1  0.000000 105.978271 72.041222 82.681305
407 4 1  0.000000 104.961937 71.753265 84.578346
408 4 1  0.000000 104.076546 71.522682 86.089256
409 4 1  0.000000 103.856117 71.366585 88.243652
410 4 1  0.000000 102.128242 70.841469 88.743820
411 4 1  0.000000 101.207886 71.337029 88.294815
412 4 1  0.000000 99.293480 70.793205 88.664474
413 4 1  0.000000 99.001617 69.461189 89.526337
414 4 1  0.000000 97.916168 70.370712 89.395332
415 4 1  0.000000 97.186028 70.558769 88.260185
416 4 1  0.000000 95.325638 70.194328 88.129768
417 4 1  0.000000 95.441818 71.382027 87.025894
418 4 1  0.000000 96.111534 73.164612 86.604721
419 4 1  0.000000 94.957016 74.118431 86.652695
420 4 1  0.000000 94.030754 74.583092 86.125931
421 4 1  0.000000 92.537285 74.578392 85.228279
422 4 1  0.000000 91.712120 76.300240 84.249107
423 4 1  0.000000 89.993507 76.553017 83.207672
424 4 1  0.000000 89.954048 75.169846 81.609489
425 4 1  0.000000 89.285995 76.722633 81.634056
426 4 1  0.000000 87.837730 75.468292 82.026245
427 4 1  0.000000 86.642624 75.227554 81.543190
428 4 1  0.000000 86.790871 73.400627 80.876717
429 4 1  0.000000 85.599113 73.366013 81.133003
430 4 1  0.000000 84.589111 73.768639 82.632645
431 4 1  0.000000 85.100273 74.745018 84.164139
432 4 1  0.000000 83.757393 75.820938 83.492325
433 4 1  0.000000 82.580208 74.516998 84.589409
434 4 1  0.000000 81.357529 74.764099 85.350967
435 4 1  0.000000 80.163315 74.074463 84.276154
436 4 1  0.000000 79.341957 74.586258 82.716667
437 4 1  0.000000 78.457497 75.621399 81.996964
438 4 1  0.000000 77.373703 75.988998 83.207947
439 4 1  0.000000 77.240509 77.019302 82.198380
440 4 1  0.000000 76.787842 76.543419 83.629623
441 4 1  0.000000 76.065681 77.419640 85.101257
442 4 1  0.000000 75.303123 78.639328 85.570274
443 4 1  0.000000 73.705811 78.081116 85.350845
444 4 1  0.000000 74.186699 78.894325 86.421143
445 4 1  0.000000 73.220474 77.471672 86.485680
446 4 1  0.000000 73.510460 75.884850 87.171211
447 4 1  0.000000 72.190506 75.195610 88.393005
448 4 1  0.000000 71.463806 73.110992 88.464485
449 4 1  0.000000 71.757027 73.707375 90.002571
450 4 1  0.000000 73.079964 72.888794 90.876465
451 4 1  0.000000 74.439995 74.047966 91.107399
452 4 1  0.000000 73.647194 72.978416 92.477066
453 4 1  0.000000 74.049339 71.421753 93.080162
454 4 1  0.000000 72.810150 70.734375 94.382668
455 4 1  0.000000 71.465607 69.904121 94.972733
456 4 1  0.000000 70.359352 70.484711 95.309479
457 4 1  0.000000 70.439041 70.109772 97.002945
458 4 1  0.000000 70.421700 71.563293 98.915001
459 4 1  0.000000 69.538223 70.782028 98.115685
460 4 1  0.000000 69.650810 69.592606 98.769257
461 4 1  0.000000 69.559105 69.680450 100.854607
462 4 1  0.000000 68.794685 70.522934 102.197372
463 4 1  0.000000 67.189301 71.025116 102.778442
464 4 1  0.000000 65.475052 70.785973 103.293205
465 4 1  0.000000 64.118408 71.034927 105.176598
466 4 1  0.000000 64.177139 72.385155 106.097427
467 4 1  0.000000 62.829128 72.427460 107.176819
468 4 1  0.000000 63.423439 73.460266 108.162758
469 4 1  0.000000 62.492966 72.093369 109.249596
470 4 1  0.000000 61.624748 72.341896 110.549072
471 4 1  0.000000 60.565155 72.292740 112.315865
472 4 1  0.000000 60.283806 74.166885 112.999046
473 4 1  0.000000 59.482708 75.394165 114.376656
474 4 1  0.000000 60.255623 77.004372 115.085663
475 4 1  0.000000 58.696068 78.780197 115.587875
476 4 1  0.000000 56.833591 78.386452 115.109703
477 4 1  0.000000 55.327591 78.246704 115.999718
478 4 1  0.000000 53.983154 77.716995 116.477577
479 4 1  0.000000 53.221306 78.178940 117.782547
480 4 1  0.000000 51.260376 79.054749 118.767670
481 4 1  0.000000 51.288082 80.234428 119.912048
482 4 1  0.000000 51.090038 78.974792 121.227623
483 4 1  0.000000 50.102367 78.384666 122.389328
484 4 1  0.000000 48.938633 78.382347 123.646294
485 4 1  0.000000 47.719131 77.740692 123.880722
486 4 1  0.000000 46.625469 76.969803 124.009239
487 4 1  0.000000 45.641830 75.488831 124.412392
488 4 1  0.000000 44.320717 74.400375 124.248436
489 4 1  0.000000 43.098515 73.516808 123.237885
490 4 1  0.000000 41.641556 74.402603 123.660194
491 4 1  0.000000 39.726494 74.399841 123.906250
492 4 1  0.000000 38.709801 73.926598 122.583107
493 4 1  0.000000 39.010616 72.638710 122.843452
494 4 1  0.000000 38.159256 71.174942 123.179016
495 4 1  0.000000 37.179390 70.262291 123.469376
496 4 1  0.000000 36.377232 71.524284 121.771057
497 4 1  0.000000 35.245617 71.186249 122.078293
498 4 1  0.000000 35.287827 72.181000 120.653122
499 4 1  0.000000 33.991501 71.827942 121.833084
500 4 1  0.000000 32.817299 71.813347 121.148781
501 5 1  0.000000 168.003098 87.030495 51.981415
502 5 1  0.000000 168.043411 85.521294 52.760910
503 5 1  0.000000 167.399094 84.184479 53.130150
504 5 1  0.000000 166.086304 85.405632 52.142925
505 5 1  0.000000 164.302048 85.947807 51.715572
506 5 1  0.000000 164.358170 87.353111 51.149815
507 5 1  0.000000 162.467590 87.991493 51.471115
508 5 1  0.000000 161.014618 89.128288 51.250931
509 5 1  0.000000 162.020279 90.202225 51.083256
510 5 1  0.000000 160.269760 90.599960 51.186382
511 5 1  0.000000 159.187683 91.654778 51.589214
512 5 1  0.000000 159.482529 91.743500 49.695724
513 5 1  0.000000 157.666595 92.251221 48.938126
514 5 1  0.000000 155.799545 92.180710 48.727703
515 5 1  0.000000 155.703003 93.931061 47.828552
516 5 1  0.000000 154.076431 93.977371 48.438221
517 5 1  0.000000 153.251480 92.826019 47.445663
518 5 1  0.000000 152.343628 94.445122 47.911568
519 5 1  0.000000 151.541199 94.833740 48.813427
520 5 1  0.000000 151.307602 94.595406 47.781082
521 5 1  0.000000 150.163391 92.927368 47.713707
522 5 1  0.000000 148.524460 93.202263 48.085667
523 5 1  0.000000 148.427292 91.532166 48.194897
524 5 1  0.000000 148.051498 91.417488 49.932053
525 5 1  0.000000 148.982590 90.196724 49.078014
526 5 1  0.000000 148.877548 88.420784 49.322090
527 5 1  0.000000 148.798325 88.136223 51.479393
528 5 1  0.000000 147.881714 87.875214 52.673950
529 5 1  0.000000 147.351501 89.097725 53.594765
530 5 1  0.000000 146.323853 88.202179 52.487755
531 5 1  0.000000 145.234192 87.023262 53.202164
532 5 1  0.000000 144.344772 86.424782 54.429623
533 5 1  0.000000 143.648438 85.829422 55.850105
534 5 1  0.000000 142.238953 86.829590 55.496681
535 5 1  0.000000 141.379196 85.028732 56.748463
536 5 1  0.000000 140.528900 84.885124 55.904720
537 5 1  0.000000 139.335526 85.365013 54.806236
538 5 1  0.000000 137.935226 86.622803 54.528400
539 5 1  0.000000 138.173553 87.728127 55.683105
540 5 1  0.000000 137.331680 88.117073 57.741398
541 5 1  0.000000 135.424377 87.998917 58.010887
542 5 1  0.000000 134.228333 89.068581 58.359581
543 5 1  0.000000 133.169434 89.981224 59.284447
544 5 1  0.000000 132.253342 91.662964 58.679600
545 5 1  0.000000 131.057938 92.045837 58.512749
546 5 1  0.000000 129.663132 91.863945 58.581493
547 5 1  0.000000 128.338120 90.941383 57.951954
548 5 1  0.000000 126.853317 91.350090 58.949093
549 5 1  0.000000 125.834099 92.148499 59.875759
550 5 1  0.000000 125.006210 90.484329 60.342731
551 5 1  0.000000 124.488014 90.597427 61.841156
552 5 1  0.000000 123.296005 90.916946 60.511467
553 5 1  0.000000 121.965118 89.756828 60.176655
554 5 1  0.000000 120.520958 88.987450 59.536327
555 5 1  0.000000 120.540031 89.791626 60.923496
556 5 1  0.000000 120.320343 90.019760 62.489788
557 5 1  0.000000 119.205109 89.475510 63.681171
558 5 1  0.000000 117.793030 90.057404 63.505863
559 5 1  0.000000 116.859917 89.972511 64.368233
560 5 1  0.000000 115.015625 89.192444 64.935349
561 5 1  0.000000 113.547150 89.051132 66.059807
562 5 1  0.000000 111.845901 88.679085 66.046173
563 5 1  0.000000 110.641693 88.695618 67.221123
564 5 1  0.000000 108.854652 88.828148 66.961594
565 5 1  0.000000 109.170280 87.041649 67.503815
566 5 1  0.000000 110.163597 85.904839 67.827240
567 5 1  0.000000 108.861725 86.462364 68.507301
568 5 1  0.000000 108.273949 87.010887 69.979095
569 5 1  0.000000 106.742218 87.005035 71.175468
570 5 1  0.000000 105.578209 87.931885 71.343605
571 5 1  0.000000 104.379349 88.126953 72.747566
572 5 1  0.000000 102.487198 87.539024 73.659813
573 5 1  0.000000 102.590088 85.946228 74.143311
574 5 1  0.000000 100.666924 85.704285 74.065384
575 5 1  0.000000 99.432968 84.884949 74.148102
576 5 1  0.000000 99.701271 83.088196 73.287621
577 5 1  0.000000 99.500076 81.408363 72.435013
578 5 1  0.000000 98.370049 81.955444 70.522377
579 5 1  0.000000 98.533714 83.180870 69.395676
580 5 1  0.000000 97.837212 82.901375 68.429314
581 5 1  0.000000 96.218079 82.272110 69.044319
582 5 1  0.000000 94.750076 81.050308 69.735268
583 5 1  0.000000 93.067459 80.295509 69.650726
584 5 1  0.000000 91.804573 79.087448 70.191780
585 5 1  0.000000 92.450256 78.307243 71.726158
586 5 1  0.000000 90.280411 78.450706 71.297737
587 5 1  0.000000 88.625343 78.805038 71.249352
588 5 1  0.000000 86.839119 78.714554 70.964828
589 5 1  0.000000 85.307060 78.195343 71.948212
590 5 1  0.000000 84.935333 78.775406 73.194092
591 5 1  0.000000 84.176735 77.873550 73.000214
592 5 1  0.000000 84.073677 77.753365 73.744064
593 5 1  0.000000 84.141441 77.519226 75.421043
594 5 1  0.000000 85.661903 76.737686 75.550758
595 5 1  0.000000 87.220253 76.976974 76.878937
596 5 1  0.000000 86.370392 77.319069 77.394783
597 5 1  0.000000 87.159561 79.293869 76.986000
598 5 1  0.000000 86.061432 80.215591 77.535980
599 5 1  0.000000 86.154678 80.891769 78.638847
600 5 1  0.000000 85.181870 80.424309 77.095123
601 6 1  0.000000 143.065781 83.757271 99.530807
602 6 1  0.000000 142.904907 83.163696 100.554565
603 6 1  0.000000 142.243530 84.450829 101.462517
604 6 1  0.000000 142.369263 85.491638 103.111061
605 6 1  0.000000 141.847305 87.002525 104.567505
606 6 1  0.000000 141.560165 86.615410 106.043510
607 6 1  0.000000 140.400848 85.944092 105.989517
608 6 1  0.000000 140.775955 87.341942 105.536797
609 6 1  0.000000 139.929047 87.293282 107.079842
610 6 1  0.000000 139.030991 86.829132 107.658066
611 6 1  0.000000 138.629013 86.530121 109.122803
612 6 1  0.000000 137.194763 86.202301 108.198769
613 6 1  0.000000 136.221649 84.674675 107.326096
614 6 1  0.000000 136.920868 83.605057 106.112968