Created with TaichiMD

1000 atoms
990 bonds
  0 angles
  0 dihedrals
  0 impropers

1 atom types
1 bond types
0 angle types
0 dihedral types
0 improper types

-80.00000  80.00000 xlo xhi
-80.00000  80.00000 ylo yhi
-80.00000  80.00000 zlo zhi

Masses

1  1.0000

Atoms

  1 0 1  0.000000 102.584167 13.238235 76.178726
  2 0 1  0.000000 101.737061 14.565224 75.979202
  3 0 1  0.000000 100.895226 15.248843 77.114914
  4 0 1  0.000000 100.920609 14.561243 78.293365
  5 0 1  0.000000 99.771751 14.550651 79.023590
  6 0 1  0.000000 98.664146 13.399457 79.383377
  7 0 1  0.000000 99.566231 12.587645 80.389877
  8 0 1  0.000000 98.912292 11.919322 81.744652
  9 0 1  0.000000 97.250473 12.147978 81.957069
 10 0 1  0.000000 95.947922 12.478052 82.737427
 11 0 1  0.000000 96.452332 13.964425 83.224243
 12 0 1  0.000000 94.994980 14.080613 83.581108
 13 0 1  0.000000 94.222458 14.536530 82.487495
 14 0 1  0.000000 93.567009 14.903346 81.022018
 15 0 1  0.000000 92.779907 15.632901 79.872177
 16 0 1  0.000000 91.243149 15.078825 79.465385
 17 0 1  0.000000 90.255264 16.202831 79.139824
 18 0 1  0.000000 89.660538 16.414440 77.818222
 19 0 1  0.000000 88.841309 17.127333 76.829445
 20 0 1  0.000000 89.018059 15.798306 75.857140
 21 0 1  0.000000 87.604919 16.243839 75.734291
 22 0 1  0.000000 86.515373 15.275814 75.035179
 23 0 1  0.000000 85.994949 13.901997 75.546684
 24 0 1  0.000000 85.228996 14.642710 74.285362
 25 0 1  0.000000 84.134666 13.633106 74.512955
 26 0 1  0.000000 83.108673 12.582936 73.859993
 27 0 1  0.000000 81.873154 12.717913 73.186119
 28 0 1  0.000000 80.509735 12.261333 72.332123
 29 0 1  0.000000 80.118416 10.789992 72.552643
 30 0 1  0.000000 79.198639  9.778803 72.028435
 31 0 1  0.000000 79.114586  8.950217 73.237717
 32 0 1  0.000000 78.713989  7.597676 73.655602
 33 0 1  0.000000 78.260101  6.468532 73.546074
 34 0 1  0.000000 77.799866  5.228295 72.696312
 35 0 1  0.000000 79.380096  5.374053 72.345879
 36 0 1  0.000000 79.782181  5.448904 70.821083
 37 0 1  0.000000 80.517769  6.256921 69.544868
 38 0 1  0.000000 80.191216  7.078839 68.348061
 39 0 1  0.000000 81.428474  7.921029 68.858421
 40 0 1  0.000000 81.228287  9.069397 68.079788
 41 0 1  0.000000 81.791481 10.491586 68.417023
 42 0 1  0.000000 82.800583 10.546644 69.539185
 43 0 1  0.000000 83.811821 10.875574 70.575577
 44 0 1  0.000000 84.674690  9.475595 70.751801
 45 0 1  0.000000 84.718620  7.819880 70.841965
 46 0 1  0.000000 85.924210  8.244723 71.725311
 47 0 1  0.000000 87.567093  8.130491 72.127510
 48 0 1  0.000000 88.478058  6.819899 71.715546
 49 0 1  0.000000 88.136047  5.982292 70.367485
 50 0 1  0.000000 88.905190  6.285712 69.216568
 51 0 1  0.000000 89.793190  5.205860 69.341675
 52 0 1  0.000000 89.435577  4.088408 68.374321
 53 0 1  0.000000 88.126648  3.100786 68.220665
 54 0 1  0.000000 86.547081  3.102244 68.230751
 55 0 1  0.000000 85.280922  4.016096 68.959824
 56 0 1  0.000000 83.946877  3.457038 69.181137
 57 0 1  0.000000 83.805511  3.195375 67.667717
 58 0 1  0.000000 83.214417  3.025615 66.320328
 59 0 1  0.000000 83.210938  1.586628 66.684105
 60 0 1  0.000000 82.968857  0.425521 65.745728
 61 0 1  0.000000 81.516319  0.303737 65.761116
 62 0 1  0.000000 80.352737  0.360368 66.767799
 63 0 1  0.000000 80.217972  0.471308 68.365875
 64 0 1  0.000000 80.622238 -0.864460 69.220901
 65 0 1  0.000000 81.775803 -0.501793 70.129105
 66 0 1  0.000000 83.023766 -1.538517 70.731384
 67 0 1  0.000000 84.397011 -0.861128 71.191681
 68 0 1  0.000000 85.280380 -1.100895 72.650276
 69 0 1  0.000000 86.663712 -0.869575 72.077660
 70 0 1  0.000000 88.124786 -0.329021 72.651291
 71 0 1  0.000000 89.297668 -0.147227 73.894791
 72 0 1  0.000000 89.256111 -0.302004 75.618866
 73 0 1  0.000000 89.676636  1.051507 75.755760
 74 0 1  0.000000 89.795158  2.468877 75.853485
 75 0 1  0.000000 89.881348  4.144151 75.919342
 76 0 1  0.000000 90.134750  5.919709 76.098015
 77 0 1  0.000000 88.760841  6.720386 75.531242
 78 0 1  0.000000 89.389229  7.753408 76.185265
 79 0 1  0.000000 90.357071  8.424129 77.202515
 80 0 1  0.000000 90.416306  9.453176 78.333824
 81 0 1  0.000000 89.826973 10.816495 79.079231
 82 0 1  0.000000 88.322105 10.501228 79.711029
 83 0 1  0.000000 87.311363  9.419772 79.552101
 84 0 1  0.000000 86.313354  9.391350 78.491684
 85 0 1  0.000000 85.647972  9.272748 79.903145
 86 0 1  0.000000 84.708595 10.098478 78.842018
 87 0 1  0.000000 83.151970 10.441962 78.370308
 88 0 1  0.000000 82.222801 11.318608 79.151108
 89 0 1  0.000000 82.217552 10.893697 80.664436
 90 0 1  0.000000 80.888336  9.908703 80.753441
 91 0 1  0.000000 80.670013  8.585029 81.538567
 92 0 1  0.000000 79.998047  7.280406 81.168159
 93 0 1  0.000000 79.016998  6.334661 80.618042
 94 0 1  0.000000 77.903496  6.364885 79.509186
 95 0 1  0.000000 76.787445  5.833699 80.252792
 96 0 1  0.000000 76.460999  4.971527 79.088249
 97 0 1  0.000000 75.429855  6.078975 79.317291
 98 0 1  0.000000 74.345741  7.065216 80.057487
 99 0 1  0.000000 72.972717  7.069645 80.893341
100 0 1  0.000000 73.243515  8.446122 81.686325
101 1 1  0.000000 93.248497 19.364092 75.612022
102 1 1  0.000000 93.977463 20.412363 76.427895
103 1 1  0.000000 93.365875 21.872452 76.491608
104 1 1  0.000000 93.524117 23.457514 77.013168
105 1 1  0.000000 93.926994 23.167891 78.475883
106 1 1  0.000000 95.434837 22.859001 78.364197
107 1 1  0.000000 96.733780 23.053411 77.576248
108 1 1  0.000000 98.014938 24.154346 78.026199
109 1 1  0.000000 97.150795 25.357864 78.150658
110 1 1  0.000000 96.641518 26.791994 78.125046
111 1 1  0.000000 96.625023 28.261023 77.780342
112 1 1  0.000000 95.470886 29.427473 77.581345
113 1 1  0.000000 94.599174 30.704885 78.157593
114 1 1  0.000000 93.746384 31.276978 79.414131
115 1 1  0.000000 92.129814 30.913479 78.934517
116 1 1  0.000000 91.212830 31.317818 77.742378
117 1 1  0.000000 89.847389 30.543016 77.820076
118 1 1  0.000000 89.104385 31.435791 76.726418
119 1 1  0.000000 87.675270 30.663458 76.790405
120 1 1  0.000000 87.443443 29.949465 78.084206
121 1 1  0.000000 85.854340 29.982533 77.747009
122 1 1  0.000000 85.792229 28.279680 77.980797
123 1 1  0.000000 84.591995 27.178810 77.919662
124 1 1  0.000000 84.557243 27.623795 79.555252
125 1 1  0.000000 83.687912 28.209507 80.738205
126 1 1  0.000000 83.437469 29.306950 81.702492
127 1 1  0.000000 82.706421 30.648878 81.955055
128 1 1  0.000000 81.249489 31.196362 82.356476
129 1 1  0.000000 80.600388 32.500515 83.176781
130 1 1  0.000000 80.243523 31.044123 83.582825
131 1 1  0.000000 79.320976 29.928467 83.199234
132 1 1  0.000000 78.005455 30.131237 84.209396
133 1 1  0.000000 77.682457 31.531574 84.896454
134 1 1  0.000000 76.080818 31.456833 84.642403
135 1 1  0.000000 75.749107 31.958326 86.108658
136 1 1  0.000000 76.555954 32.759567 87.165169
137 1 1  0.000000 75.834976 33.734295 88.096939
138 1 1  0.000000 76.565895 34.813606 88.971939
139 1 1  0.000000 77.619377 35.194077 90.140373
140 1 1  0.000000 78.183647 35.570457 88.788345
141 1 1  0.000000 79.411369 36.501091 88.884384
142 1 1  0.000000 79.679703 36.241722 87.465614
143 1 1  0.000000 79.623474 37.338696 86.279808
144 1 1  0.000000 80.506248 38.311459 85.623878
145 1 1  0.000000 80.659401 39.212971 84.533821
146 1 1  0.000000 80.098320 38.572399 83.449814
147 1 1  0.000000 79.962784 38.248882 81.895256
148 1 1  0.000000 79.044159 37.565254 80.690643
149 1 1  0.000000 78.396828 36.437168 79.708542
150 1 1  0.000000 78.051704 37.782722 79.194199
151 1 1  0.000000 77.742859 39.000576 78.340408
152 1 1  0.000000 78.305168 40.493103 78.500534
153 1 1  0.000000 79.206284 41.234615 79.563751
154 1 1  0.000000 78.474113 42.266979 80.164864
155 1 1  0.000000 79.573074 42.422585 81.180649
156 1 1  0.000000 79.290001 42.255043 82.835526
157 1 1  0.000000 78.300781 43.105995 83.857399
158 1 1  0.000000 77.961479 43.165424 85.321045
159 1 1  0.000000 78.169922 41.848267 86.433479
160 1 1  0.000000 77.872719 42.799095 87.683884
161 1 1  0.000000 77.645409 41.716354 88.723816
162 1 1  0.000000 76.194565 41.148212 89.386589
163 1 1  0.000000 75.502579 42.424927 89.566437
164 1 1  0.000000 74.447861 42.645508 90.825310
165 1 1  0.000000 74.741234 43.835175 91.600868
166 1 1  0.000000 75.738388 44.282974 92.559647
167 1 1  0.000000 76.382256 45.759598 92.161087
168 1 1  0.000000 77.862473 45.725006 92.671951
169 1 1  0.000000 79.198776 44.885139 92.759445
170 1 1  0.000000 79.780434 44.621819 91.321213
171 1 1  0.000000 80.628227 43.383240 90.905266
172 1 1  0.000000 81.827896 43.811787 90.041412
173 1 1  0.000000 81.792488 45.058277 89.049423
174 1 1  0.000000 81.889175 43.704136 88.238136
175 1 1  0.000000 82.827904 43.504124 87.079712
176 1 1  0.000000 83.853966 44.251652 86.362549
177 1 1  0.000000 82.953766 45.623291 85.747292
178 1 1  0.000000 82.035500 45.844845 84.440475
179 1 1  0.000000 82.473282 45.028870 83.218384
180 1 1  0.000000 83.600327 45.779144 82.789680
181 1 1  0.000000 84.316071 44.661762 81.883202
182 1 1  0.000000 84.296127 43.144016 81.329590
183 1 1  0.000000 83.773666 42.309959 80.062637
184 1 1  0.000000 82.726669 42.177536 78.950630
185 1 1  0.000000 82.163239 43.281994 77.974480
186 1 1  0.000000 81.873833 43.411137 76.547897
187 1 1  0.000000 81.705215 44.706917 76.028374
188 1 1  0.000000 80.517601 45.934223 76.275826
189 1 1  0.000000 79.533722 46.528458 77.416840
190 1 1  0.000000 80.490585 47.188740 78.549278
191 1 1  0.000000 81.312416 47.902847 79.446045
192 1 1  0.000000 82.497864 48.529961 78.941734
193 1 1  0.000000 83.482910 49.621769 78.647102
194 1 1  0.000000 83.707863 48.053802 78.546387
195 1 1  0.000000 84.683418 47.152740 77.750801
196 1 1  0.000000 85.710175 45.988270 77.780739
197 1 1  0.000000 87.247169 46.197132 78.086159
198 1 1  0.000000 87.878304 47.482285 78.682472
199 1 1  0.000000 88.376564 48.047764 77.427330
200 1 1  0.000000 89.130478 46.730270 77.607620
201 2 1  0.000000 95.459106 35.599007 71.236481
202 2 1  0.000000 94.144989 35.117241 71.886566
203 2 1  0.000000 94.570580 34.845551 73.261787
204 2 1  0.000000 95.357521 33.376961 73.130257
205 2 1  0.000000 95.984962 32.108925 72.485596
206 2 1  0.000000 95.397865 31.534037 73.603752
207 2 1  0.000000 94.253914 30.846079 72.791237
208 2 1  0.000000 92.766029 30.911619 73.328560
209 2 1  0.000000 91.279449 30.722841 72.859871
210 2 1  0.000000 90.187027 31.648869 72.192650
211 2 1  0.000000 90.592560 33.110958 72.319763
212 2 1  0.000000 90.759117 34.155991 71.056770
213 2 1  0.000000 89.749001 35.117676 70.423790
214 2 1  0.000000 88.929001 34.732105 69.063637
215 2 1  0.000000 88.780449 36.151157 68.716164
216 2 1  0.000000 89.359909 36.365192 67.281708
217 2 1  0.000000 89.139404 37.961479 66.825607
218 2 1  0.000000 88.009354 38.773388 66.713081
219 2 1  0.000000 86.635033 39.604919 66.638962
220 2 1  0.000000 86.044350 39.370907 65.126785
221 2 1  0.000000 85.446320 40.824032 65.500244
222 2 1  0.000000 84.423653 41.995029 64.938385
223 2 1  0.000000 83.718163 43.434700 64.493614
224 2 1  0.000000 85.085121 43.794746 63.811108
225 2 1  0.000000 84.880913 45.418732 64.009933
226 2 1  0.000000 86.470764 45.751411 63.675343
227 2 1  0.000000 87.108269 46.778099 64.703163
228 2 1  0.000000 88.520958 47.189606 65.075592
229 2 1  0.000000 88.212349 48.516651 65.775566
230 2 1  0.000000 89.703888 49.090076 65.398323
231 2 1  0.000000 90.225677 48.297333 66.788422
232 2 1  0.000000 91.049767 49.350197 67.056107
233 2 1  0.000000 91.769386 49.122028 68.439415
234 2 1  0.000000 91.063843 48.360069 69.511063
235 2 1  0.000000 90.295067 48.685772 70.744293
236 2 1  0.000000 88.939049 49.754372 70.754059
237 2 1  0.000000 87.635971 49.277054 71.202301
238 2 1  0.000000 86.465706 48.724880 72.106323
239 2 1  0.000000 85.008049 48.749649 71.481926
240 2 1  0.000000 85.212090 47.755596 70.291664
241 2 1  0.000000 84.064079 47.679371 69.433426
242 2 1  0.000000 82.919624 47.442467 68.635300
243 2 1  0.000000 81.435921 47.840954 68.281464
244 2 1  0.000000 81.232864 48.328968 69.794380
245 2 1  0.000000 80.562706 48.850178 71.097351
246 2 1  0.000000 79.105148 48.934666 70.792007
247 2 1  0.000000 79.604866 47.833134 71.896721
248 2 1  0.000000 77.971451 47.636219 71.906387
249 2 1  0.000000 76.722420 48.483307 71.481316
250 2 1  0.000000 75.736771 47.634106 72.195221
251 2 1  0.000000 74.454521 47.324104 73.171112
252 2 1  0.000000 73.842590 48.144169 74.188034
253 2 1  0.000000 72.272537 47.871861 74.346504
254 2 1  0.000000 71.847801 47.723251 75.911209
255 2 1  0.000000 70.590416 48.649273 76.206963
256 2 1  0.000000 69.195404 48.335976 76.967636
257 2 1  0.000000 68.661018 49.851051 76.535645
258 2 1  0.000000 68.613144 51.386681 76.814735
259 2 1  0.000000 69.841309 51.915493 77.791451
260 2 1  0.000000 70.961235 51.744114 78.852745
261 2 1  0.000000 72.202988 52.091911 77.998177
262 2 1  0.000000 72.929710 52.410088 76.604019
263 2 1  0.000000 74.263199 51.774803 76.548767
264 2 1  0.000000 74.815056 52.588535 77.588898
265 2 1  0.000000 76.133064 52.299442 76.917114
266 2 1  0.000000 77.630959 52.501812 76.702019
267 2 1  0.000000 78.463608 53.337543 75.565727
268 2 1  0.000000 79.354454 52.076725 75.596207
269 2 1  0.000000 79.978828 50.841576 74.799530
270 2 1  0.000000 80.989342 51.725677 74.228943
271 2 1  0.000000 82.244186 51.668762 75.079430
272 2 1  0.000000 83.755264 52.029396 75.413872
273 2 1  0.000000 83.641258 51.901512 74.003403
274 2 1  0.000000 84.459511 53.176434 74.383095
275 2 1  0.000000 84.525665 54.683769 75.193138
276 2 1  0.000000 84.100922 55.959248 75.851860
277 2 1  0.000000 84.197662 57.257668 76.719414
278 2 1  0.000000 83.383980 58.424595 76.506332
279 2 1  0.000000 82.258492 58.982582 77.477615
280 2 1  0.000000 80.801674 59.705864 77.848801
281 2 1  0.000000 80.113960 58.842552 79.025696
282 2 1  0.000000 81.438301 59.186661 79.839447
283 2 1  0.000000 81.839775 59.826733 81.110069
284 2 1  0.000000 83.286575 59.279480 81.062378
285 2 1  0.000000 84.389603 58.837280 80.316093
286 2 1  0.000000 85.737762 58.185410 80.609360
287 2 1  0.000000 84.903000 57.283596 81.701904
288 2 1  0.000000 85.031265 56.089329 82.710999
289 2 1  0.000000 84.535889 54.900173 83.764671
290 2 1  0.000000 83.458519 56.187786 83.622543
291 2 1  0.000000 82.112801 55.588646 84.385811
292 2 1  0.000000 81.226433 55.930176 83.208961
293 2 1  0.000000 79.928978 55.383995 84.097214
294 2 1  0.000000 79.373138 55.360645 85.567970
295 2 1  0.000000 78.812378 54.377449 86.617737
296 2 1  0.000000 77.935547 54.273426 87.972313
297 2 1  0.000000 76.586098 53.695526 88.073250
298 2 1  0.000000 76.256538 53.468864 89.573257
299 2 1  0.000000 75.221123 52.963982 88.602028
300 2 1  0.000000 75.483978 51.743977 89.535439
301 3 1  0.000000 67.678093 62.868046 87.268578
302 3 1  0.000000 68.328209 63.972324 86.291603
303 3 1  0.000000 69.260254 62.725445 86.578079
304 3 1  0.000000 70.107735 62.024822 87.832649
305 3 1  0.000000 70.540749 60.773434 87.902580
306 3 1  0.000000 70.657722 60.107315 89.341896
307 3 1  0.000000 71.872749 59.389248 89.856277
308 3 1  0.000000 72.663605 60.619850 90.587868
309 3 1  0.000000 72.205246 60.480732 92.092484
310 3 1  0.000000 73.461365 59.723148 92.656593
311 3 1  0.000000 72.978050 61.056438 93.216576
312 3 1  0.000000 74.514359 61.657761 93.085258
313 3 1  0.000000 75.944099 61.081696 93.300507
314 3 1  0.000000 76.708168 62.395130 93.248787
315 3 1  0.000000 75.849426 63.618027 93.200485
316 3 1  0.000000 75.590111 64.969849 93.084511
317 3 1  0.000000 76.283424 66.000977 92.195633
318 3 1  0.000000 75.712395 65.807686 90.811409
319 3 1  0.000000 75.321159 66.504684 89.701736
320 3 1  0.000000 74.934906 66.119133 88.067490
321 3 1  0.000000 75.890778 66.993843 86.964180
322 3 1  0.000000 74.382935 66.650101 87.195053
323 3 1  0.000000 74.689095 65.425018 86.145882
324 3 1  0.000000 73.681702 64.371346 85.320618
325 3 1  0.000000 73.335060 63.177780 84.777451
326 3 1  0.000000 74.498421 62.115246 84.568489
327 3 1  0.000000 73.743340 60.846382 84.299606
328 3 1  0.000000 74.501434 59.821632 85.005333
329 3 1  0.000000 73.153625 59.151821 85.420677
330 3 1  0.000000 73.946472 59.087360 86.923340
331 3 1  0.000000 74.048401 57.730854 86.214493
332 3 1  0.000000 74.798706 56.363792 86.557770
333 3 1  0.000000 73.390808 55.990284 86.985573
334 3 1  0.000000 72.494835 55.349327 85.942856
335 3 1  0.000000 72.121231 54.472416 84.581390
336 3 1  0.000000 70.566284 54.236919 84.989929
337 3 1  0.000000 70.482559 53.625221 83.495743
338 3 1  0.000000 70.045723 55.130371 82.900459
339 3 1  0.000000 68.680870 55.023773 83.697433
340 3 1  0.000000 67.983940 54.549187 82.356926
341 3 1  0.000000 66.671326 53.693596 82.288010
342 3 1  0.000000 66.871140 52.480560 81.345627
343 3 1  0.000000 65.417358 51.883167 81.701790
344 3 1  0.000000 66.383316 50.793762 81.061737
345 3 1  0.000000 67.724991 49.820518 81.080460
346 3 1  0.000000 69.170303 49.987980 81.669464
347 3 1  0.000000 70.544632 50.320889 82.250267
348 3 1  0.000000 70.339783 49.692982 83.360863
349 3 1  0.000000 70.408226 48.206203 83.272263
350 3 1  0.000000 69.420937 47.377041 84.062531
351 3 1  0.000000 69.702332 48.026638 85.657204
352 3 1  0.000000 70.228004 46.700665 85.483482
353 3 1  0.000000 71.369720 46.216816 86.133247
354 3 1  0.000000 72.864723 46.225670 86.755600
355 3 1  0.000000 74.245438 46.274891 87.262344
356 3 1  0.000000 75.497086 46.955715 87.956718
357 3 1  0.000000 76.517265 46.714401 86.816864
358 3 1  0.000000 77.150551 47.849903 85.584343
359 3 1  0.000000 77.432648 47.298378 84.246597
360 3 1  0.000000 76.785736 47.013523 82.825150
361 3 1  0.000000 76.776611 46.941589 81.449089
362 3 1  0.000000 76.852333 48.433678 81.528923
363 3 1  0.000000 75.459183 48.576023 80.870468
364 3 1  0.000000 74.215584 49.555481 81.442337
365 3 1  0.000000 74.620033 51.038212 81.586540
366 3 1  0.000000 75.418556 51.781704 82.626038
367 3 1  0.000000 75.165688 53.258987 82.618813
368 3 1  0.000000 75.736465 54.366039 83.262482
369 3 1  0.000000 75.872581 55.628513 82.337990
370 3 1  0.000000 76.353058 56.829449 81.449539
371 3 1  0.000000 75.741714 58.122299 81.608200
372 3 1  0.000000 75.385475 58.832905 80.199417
373 3 1  0.000000 74.950653 59.783569 79.224854
374 3 1  0.000000 75.365311 61.188503 79.385536
375 3 1  0.000000 76.332230 61.647030 80.341652
376 3 1  0.000000 77.690308 61.840904 80.375427
377 3 1  0.000000 77.915718 61.819214 81.781586
378 3 1  0.000000 78.618721 61.651993 83.378555
379 3 1  0.000000 79.534096 60.636204 83.862686
380 3 1  0.000000 79.468781 60.899326 85.272484
381 3 1  0.000000 79.431007 59.852947 86.221260
382 3 1  0.000000 80.746391 59.332275 87.302040
383 3 1  0.000000 81.980026 59.303055 88.298279
384 3 1  0.000000 82.884117 59.045727 87.065018
385 3 1  0.000000 84.439430 59.505699 87.256874
386 3 1  0.000000 83.898804 60.693985 86.207825
387 3 1  0.000000 84.775490 61.327351 85.055649
388 3 1  0.000000 83.953606 61.550945 83.871078
389 3 1  0.000000 83.673523 62.859547 83.216385
390 3 1  0.000000 82.856934 64.313087 83.071007
391 3 1  0.000000 83.464302 64.743530 84.445435
392 3 1  0.000000 82.450264 64.713837 85.641785
393 3 1  0.000000 81.372406 65.762169 86.114067
394 3 1  0.000000 81.006699 66.953033 87.306656
395 3 1  0.000000 79.745461 67.976624 87.476707
396 3 1  0.000000 80.229370 69.266029 88.406090
397 3 1  0.000000 79.306145 70.213608 89.140999
398 3 1  0.000000 78.472420 69.911842 90.423004
399 3 1  0.000000 77.401596 69.864052 91.623520
400 3 1  0.000000 76.031021 70.153778 92.567467
401 4 1  0.000000 65.681297 67.677696 74.362083
402 4 1  0.000000 66.676865 68.009331 75.274940
403 4 1  0.000000 67.755272 68.709831 76.159943
404 4 1  0.000000 67.173279 68.205063 77.257553
405 4 1  0.000000 66.471115 68.321678 78.520836
406 4 1  0.000000 65.858955 68.112045 79.926445
407 4 1  0.000000 64.732719 67.153893 79.811157
408 4 1  0.000000 64.855446 65.566719 79.771873
409 4 1  0.000000 65.772270 64.398544 78.952461
410 4 1  0.000000 67.260971 63.943035 78.170738
411 4 1  0.000000 68.130005 62.617622 78.544960
412 4 1  0.000000 68.728653 63.633907 77.784058
413 4 1  0.000000 70.233505 63.168869 77.535362
414 4 1  0.000000 71.027039 63.358421 78.720604
415 4 1  0.000000 71.409958 64.716469 79.138214
416 4 1  0.000000 70.494598 64.768013 80.579247
417 4 1  0.000000 70.455147 66.147842 81.603821
418 4 1  0.000000 71.958458 66.131813 81.043579
419 4 1  0.000000 72.256554 67.405243 81.897163
420 4 1  0.000000 73.277138 67.928505 80.781929
421 4 1  0.000000 72.796310 68.188225 79.282822
422 4 1  0.000000 73.130630 68.627991 77.806351
423 4 1  0.000000 74.601723 68.318832 78.431526
424 4 1  0.000000 75.093391 69.660767 77.434196
425 4 1  0.000000 76.421432 69.874504 78.151474
426 4 1  0.000000 76.018494 70.036995 76.661774
427 4 1  0.000000 75.548935 70.710983 75.468147
428 4 1  0.000000 75.701904 71.682808 74.250038
429 4 1  0.000000 75.175522 72.939545 73.928596
430 4 1  0.000000 75.582977 74.235481 73.072968
431 4 1  0.000000 76.878723 73.630287 72.303909
432 4 1  0.000000 77.980072 74.739677 72.080223
433 4 1  0.000000 77.900307 75.892273 73.335609
434 4 1  0.000000 78.659302 77.151886 73.482605
435 4 1  0.000000 80.050896 77.113968 74.136467
436 4 1  0.000000 80.998611 76.049187 74.276581
437 4 1  0.000000 81.457253 75.020775 75.441650
438 4 1  0.000000 81.175896 73.305489 75.318764
439 4 1  0.000000 79.419182 73.099113 75.457375
440 4 1  0.000000 79.568207 71.906219 74.615639
441 4 1  0.000000 80.761864 71.552971 73.795029
442 4 1  0.000000 80.354996 70.696602 72.542198
443 4 1  0.000000 80.236298 69.228951 71.757950
444 4 1  0.000000 79.797211 67.901085 71.352081
445 4 1  0.000000 78.401390 67.689651 71.865639
446 4 1  0.000000 77.799561 67.997444 73.380447
447 4 1  0.000000 77.066635 66.826241 74.042313
448 4 1  0.000000 76.828743 65.966003 75.232025
449 4 1  0.000000 75.624252 65.095833 76.178093
450 4 1  0.000000 76.620583 63.857697 76.329277
451 4 1  0.000000 77.215446 64.509003 77.614151
452 4 1  0.000000 78.019478 65.272949 78.776230
453 4 1  0.000000 79.133636 65.796844 79.620949
454 4 1  0.000000 80.614311 65.822517 79.346626
455 4 1  0.000000 80.662521 67.375107 79.942688
456 4 1  0.000000 80.537491 68.214272 81.107964
457 4 1  0.000000 80.375366 67.981819 82.570595
458 4 1  0.000000 79.674240 69.255051 82.169083
459 4 1  0.000000 79.219109 69.553101 83.559822
460 4 1  0.000000 77.840149 69.138443 84.123360
461 4 1  0.000000 76.370461 68.882462 83.845207
462 4 1  0.000000 75.599823 70.374664 83.602417
463 4 1  0.000000 74.571686 71.242210 83.437065
464 4 1  0.000000 75.291534 72.119102 82.493080
465 4 1  0.000000 75.533470 73.644073 82.468109
466 4 1  0.000000 75.245026 74.376060 83.859024
467 4 1  0.000000 75.519279 75.729088 83.410614
468 4 1  0.000000 74.646973 76.902824 82.582657
469 4 1  0.000000 74.756737 78.338852 83.101837
470 4 1  0.000000 74.002800 79.508308 82.358452
471 4 1  0.000000 72.542664 79.783699 81.750702
472 4 1  0.000000 71.179535 80.267761 81.482437
473 4 1  0.000000 70.618484 78.801430 81.178253
474 4 1  0.000000 69.560493 77.505562 81.282089
475 4 1  0.000000 69.661789 77.447891 82.905289
476 4 1  0.000000 70.675644 76.693321 83.831108
477 4 1  0.000000 71.554420 76.861893 85.324615
478 4 1  0.000000 72.083069 77.885666 86.379402
479 4 1  0.000000 72.160309 77.128334 87.725281
480 4 1  0.000000 71.006104 76.535011 88.704208
481 4 1  0.000000 71.867416 76.615768 90.046211
482 4 1  0.000000 72.565384 76.813599 91.409836
483 4 1  0.000000 72.248489 75.548752 92.430901
484 4 1  0.000000 73.704529 75.946655 92.474342
485 4 1  0.000000 75.175606 75.451828 92.664963
486 4 1  0.000000 76.658234 75.443359 93.496002
487 4 1  0.000000 76.042122 75.035660 94.793968
488 4 1  0.000000 76.988388 73.952309 94.965599
489 4 1  0.000000 78.229942 72.907730 95.192024
490 4 1  0.000000 78.910797 71.900238 96.006973
491 4 1  0.000000 77.805702 71.530838 97.032379
492 4 1  0.000000 76.851440 70.338242 97.293846
493 4 1  0.000000 77.799850 69.018288 97.764275
494 4 1  0.000000 77.244057 68.019096 96.931206
495 4 1  0.000000 77.850151 66.520706 96.855621
496 4 1  0.000000 79.058434 66.980225 96.095184
497 4 1  0.000000 78.901894 65.422356 95.881729
498 4 1  0.000000 80.502739 65.884148 95.976562
499 4 1  0.000000 82.011414 65.538277 95.639107
500 4 1  0.000000 81.622009 64.009811 95.250122
501 5 1  0.000000 97.886452 100.385185 89.648193
502 5 1  0.000000 98.444626 99.272545 90.500542
503 5 1  0.000000 99.460480 98.040710 90.430511
504 5 1  0.000000 99.645096 96.623199 90.258240
505 5 1  0.000000 99.335464 95.211365 89.482353
506 5 1  0.000000 98.782677 94.186455 88.480370
507 5 1  0.000000 98.334229 93.326065 89.757309
508 5 1  0.000000 97.143280 94.199280 90.436157
509 5 1  0.000000 95.713280 94.035240 90.604454
510 5 1  0.000000 94.832542 92.764938 90.353065
511 5 1  0.000000 93.728676 91.800713 90.024208
512 5 1  0.000000 93.507797 91.030327 88.673904
513 5 1  0.000000 92.540886 91.062660 87.474083
514 5 1  0.000000 91.143646 91.741402 87.413162
515 5 1  0.000000 91.038406 90.168343 87.790474
516 5 1  0.000000 90.653336 89.007614 86.768600
517 5 1  0.000000 91.234863 87.758667 86.329330
518 5 1  0.000000 92.422752 87.060509 86.873405
519 5 1  0.000000 93.767090 86.570229 86.214645
520 5 1  0.000000 94.445198 87.974190 85.917709
521 5 1  0.000000 94.475357 88.020012 84.299011
522 5 1  0.000000 95.888062 88.499611 84.095993
523 5 1  0.000000 97.024796 89.123672 82.932129
524 5 1  0.000000 96.736908 90.209457 84.028069
525 5 1  0.000000 96.055115 91.423180 83.542137
526 5 1  0.000000 96.055771 92.836243 84.259872
527 5 1  0.000000 95.399200 93.942291 83.554878
528 5 1  0.000000 93.979790 93.876129 83.890709
529 5 1  0.000000 92.953026 94.653397 84.657776
530 5 1  0.000000 92.523186 96.152779 84.816162
531 5 1  0.000000 90.974113 96.106148 85.097778
532 5 1  0.000000 90.996689 97.206596 84.094154
533 5 1  0.000000 91.748543 98.475632 83.299606
534 5 1  0.000000 91.208435 98.913689 81.928131
535 5 1  0.000000 90.156303 98.268478 81.345505
536 5 1  0.000000 88.555153 98.304863 81.247818
537 5 1  0.000000 87.207382 97.486801 81.426613
538 5 1  0.000000 87.126884 96.017799 81.410416
539 5 1  0.000000 87.223091 94.642372 81.561287
540 5 1  0.000000 87.078835 93.750053 80.270248
541 5 1  0.000000 86.208900 92.454781 80.769707
542 5 1  0.000000 86.191940 91.113167 81.293243
543 5 1  0.000000 85.316849 90.705841 80.071884
544 5 1  0.000000 84.125076 90.442780 79.042297
545 5 1  0.000000 84.047424 89.744331 80.394096
546 5 1  0.000000 82.594688 89.885063 80.963081
547 5 1  0.000000 81.498398 88.694473 80.538261
548 5 1  0.000000 80.575569 89.952225 80.454002
549 5 1  0.000000 79.751152 89.899269 81.920692
550 5 1  0.000000 78.193207 90.140404 81.658264
551 5 1  0.000000 77.286339 90.973465 80.809685
552 5 1  0.000000 75.765045 90.668373 80.225365
553 5 1  0.000000 75.315269 89.879074 79.043388
554 5 1  0.000000 75.719200 88.695274 78.293983
555 5 1  0.000000 74.185616 88.650963 78.206696
556 5 1  0.000000 74.661697 88.810898 76.773659
557 5 1  0.000000 75.365570 87.270813 76.437973
558 5 1  0.000000 74.856926 86.704384 75.186127
559 5 1  0.000000 74.762306 85.695389 73.911697
560 5 1  0.000000 75.195328 84.688400 75.135605
561 5 1  0.000000 76.205643 83.804703 74.269104
562 5 1  0.000000 76.900017 82.647064 73.388557
563 5 1  0.000000 77.567017 83.041054 72.177551
564 5 1  0.000000 78.716255 82.865852 73.217506
565 5 1  0.000000 79.217430 81.442276 72.886795
566 5 1  0.000000 80.572609 80.588127 72.599747
567 5 1  0.000000 82.059334 80.992508 72.908783
568 5 1  0.000000 83.425117 80.742767 73.624641
569 5 1  0.000000 83.096222 80.688515 75.105782
570 5 1  0.000000 84.136314 80.905823 76.092491
571 5 1  0.000000 84.452682 80.450851 77.585388
572 5 1  0.000000 85.736931 80.985924 78.355263
573 5 1  0.000000 85.145378 82.312271 77.918747
574 5 1  0.000000 84.696609 83.475662 78.673065
575 5 1  0.000000 83.265160 84.038528 78.373436
576 5 1  0.000000 83.321785 85.451210 77.731995
577 5 1  0.000000 82.626434 86.724312 77.029366
578 5 1  0.000000 81.862144 85.387756 77.148964
579 5 1  0.000000 80.455139 85.980530 76.619087
580 5 1  0.000000 79.300606 86.169731 77.304657
581 5 1  0.000000 79.162453 85.751404 78.844749
582 5 1  0.000000 78.608246 85.043800 80.050217
583 5 1  0.000000 77.356819 84.512886 81.123703
584 5 1  0.000000 76.215378 85.197136 82.035240
585 5 1  0.000000 74.841415 85.261696 82.856781
586 5 1  0.000000 74.161545 84.663605 81.553284
587 5 1  0.000000 73.795212 84.811386 80.074669
588 5 1  0.000000 73.035187 83.505966 79.613312
589 5 1  0.000000 71.624062 83.678886 78.852753
590 5 1  0.000000 70.293114 83.751999 78.075470
591 5 1  0.000000 68.965088 83.352356 77.088943
592 5 1  0.000000 68.880150 81.790825 77.078194
593 5 1  0.000000 69.793907 82.180206 75.901596
594 5 1  0.000000 71.057312 81.454185 75.502068
595 5 1  0.000000 72.459679 81.320671 75.306854
596 5 1  0.000000 72.896461 80.628349 76.841110
597 5 1  0.000000 74.236206 80.819344 76.886269
598 5 1  0.000000 75.408310 79.878677 77.617966
599 5 1  0.000000 76.095055 79.029327 76.539131
600 5 1  0.000000 76.771690 80.073486 76.694572
601 6 1  0.000000 75.414062 93.213852 74.063309
602 6 1  0.000000 76.442169 92.553993 74.911995
603 6 1  0.000000 77.760437 92.050735 74.538559
604 6 1  0.000000 78.828720 93.076935 74.989571
605 6 1  0.000000 79.213074 94.590233 75.285645
606 6 1  0.000000 79.153023 94.604095 76.930504
607 6 1  0.000000 79.358803 95.933907 77.695732
608 6 1  0.000000 79.833061 94.598030 78.322220
609 6 1  0.000000 78.856499 95.829636 78.849808
610 6 1  0.000000 78.584854 95.234612 80.291267
611 6 1  0.000000 77.910332 96.014069 81.401291
612 6 1  0.000000 77.607857 94.853096 82.390511
613 6 1  0.000000 76.075661 95.129410 82.597878
614 6 1  0.000000 74.676643 94.624985 83.272461
615 6 1  0.000000 73.719246 95.184601 82.232101
616 6 1  0.000000 72.507271 95.799377 81.709679
617 6 1  0.000000 73.383743 95.612755 80.321426
618 6 1  0.000000 73.956711 96.573799 79.508904
619 6 1  0.000000 73.506454 95.701492 78.386284