Created with TaichiMD

1000 atoms
990 bonds
  0 angles
  0 dihedrals
  0 impropers

1 atom types
1 bond types
0 angle types
0 dihedral types
0 improper types

-80.00000  80.00000 xlo xhi
-80.00000  80.00000 ylo yhi
-80.00000  80.00000 zlo zhi

Masses

1 10.0000

Atoms

  1 0 1  0.000000  3.790259 19.998455 80.007538
  2 0 1  0.000000  5.302159 20.003994 79.985550
  3 0 1  0.000000  6.850805 20.014313 80.011749
  4 0 1  0.000000  8.387659 19.995441 80.020218
  5 0 1  0.000000  9.939845 19.989841 80.020187
  6 0 1  0.000000 11.459465 19.979813 80.004761
  7 0 1  0.000000 13.012201 19.981533 79.985046
  8 0 1  0.000000 14.544080 19.992535 79.996429
  9 0 1  0.000000 16.108496 20.016270 79.979828
 10 0 1  0.000000 17.619841 19.991943 79.987946
 11 0 1  0.000000 19.168684 20.009029 80.010330
 12 0 1  0.000000 20.715836 19.985512 79.987991
 13 0 1  0.000000 22.238869 20.017006 79.991745
 14 0 1  0.000000 23.772253 19.987175 79.999924
 15 0 1  0.000000 25.335255 20.019096 79.981979
 16 0 1  0.000000 26.867512 19.997375 80.003326
 17 0 1  0.000000 28.416130 19.992443 80.011002
 18 0 1  0.000000 29.952513 19.991726 80.011032
 19 0 1  0.000000 31.509935 20.013031 80.007736
 20 0 1  0.000000 33.040447 19.979679 80.002151
 21 0 1  0.000000 34.566727 20.013016 79.989853
 22 0 1  0.000000 36.120422 19.982834 79.989853
 23 0 1  0.000000 37.646614 20.005814 80.010223
 24 0 1  0.000000 39.180878 20.011639 80.019470
 25 0 1  0.000000 40.746147 20.012520 79.992874
 26 0 1  0.000000 42.276943 20.007721 80.012665
 27 0 1  0.000000 43.803562 19.995884 79.985733
 28 0 1  0.000000 45.334503 20.008495 80.004211
 29 0 1  0.000000 46.901096 20.010708 79.980362
 30 0 1  0.000000 48.433311 20.015617 79.981476
 31 0 1  0.000000 49.989792 20.014885 80.015976
 32 0 1  0.000000 51.492298 20.011337 80.007889
 33 0 1  0.000000 53.044785 19.999298 79.996353
 34 0 1  0.000000 54.605583 19.992584 80.006409
 35 0 1  0.000000 56.117653 19.986122 80.017212
 36 0 1  0.000000 57.664051 20.017609 80.000000
 37 0 1  0.000000 59.216179 19.999588 79.987823
 38 0 1  0.000000 60.743622 20.007347 80.012665
 39 0 1  0.000000 62.277073 19.990662 80.020126
 40 0 1  0.000000 63.816887 19.981434 79.991180
 41 0 1  0.000000 65.353157 19.992344 79.994034
 42 0 1  0.000000 66.926949 19.998528 79.981293
 43 0 1  0.000000 68.470673 19.986134 80.009338
 44 0 1  0.000000 69.972450 19.988998 79.991058
 45 0 1  0.000000 71.528755 19.991489 80.017212
 46 0 1  0.000000 73.052017 20.008644 79.982361
 47 0 1  0.000000 74.604477 19.984589 79.993408
 48 0 1  0.000000 76.151459 20.000687 80.006363
 49 0 1  0.000000 77.710785 19.989830 80.002899
 50 0 1  0.000000 79.215721 19.997246 79.982681
 51 0 1  0.000000 80.760643 19.990894 80.019043
 52 0 1  0.000000 82.314255 20.008644 80.011185
 53 0 1  0.000000 83.865616 19.986698 80.019485
 54 0 1  0.000000 85.377922 19.984928 80.000565
 55 0 1  0.000000 86.913742 19.981403 79.991104
 56 0 1  0.000000 88.468864 19.981365 80.010620
 57 0 1  0.000000 90.009743 20.014050 80.004211
 58 0 1  0.000000 91.538895 19.998779 79.982376
 59 0 1  0.000000 93.077133 19.980339 79.992020
 60 0 1  0.000000 94.648773 19.981327 80.005341
 61 0 1  0.000000 96.178909 20.019939 79.993073
 62 0 1  0.000000 97.719048 20.016138 79.980530
 63 0 1  0.000000 99.243645 20.003662 80.010559
 64 0 1  0.000000 100.788383 19.983223 80.006393
 65 0 1  0.000000 102.316330 19.994907 79.983398
 66 0 1  0.000000 103.858871 20.018520 79.988129
 67 0 1  0.000000 105.390068 19.987740 79.991638
 68 0 1  0.000000 106.949516 19.990562 79.998795
 69 0 1  0.000000 108.504105 19.985268 80.010666
 70 0 1  0.000000 110.015938 20.017145 80.008224
 71 0 1  0.000000 111.568718 19.998104 80.019470
 72 0 1  0.000000 113.121986 19.998371 80.016403
 73 0 1  0.000000 114.653030 19.987396 80.016190
 74 0 1  0.000000 116.208656 19.997074 79.994171
 75 0 1  0.000000 117.728424 20.007729 79.980469
 76 0 1  0.000000 119.271332 20.009712 80.015854
 77 0 1  0.000000 120.792084 20.018742 79.996506
 78 0 1  0.000000 122.345695 20.013260 80.009628
 79 0 1  0.000000 123.896126 20.005459 79.992172
 80 0 1  0.000000 125.437889 19.999943 79.986923
 81 0 1  0.000000 126.975197 20.004745 79.994583
 82 0 1  0.000000 128.494415 19.985546 79.986145
 83 0 1  0.000000 130.040878 20.011787 79.997955
 84 0 1  0.000000 131.585281 19.998077 79.997879
 85 0 1  0.000000 133.124695 20.003994 79.997299
 86 0 1  0.000000 134.660355 20.014496 79.999725
 87 0 1  0.000000 136.201889 20.001900 79.990799
 88 0 1  0.000000 137.769730 20.003990 79.997009
 89 0 1  0.000000 139.278503 19.998802 80.007233
 90 0 1  0.000000 140.814743 20.008999 80.002304
 91 0 1  0.000000 142.352356 20.016670 79.996414
 92 0 1  0.000000 143.908478 20.005505 79.981659
 93 0 1  0.000000 145.451218 20.018635 79.991806
 94 0 1  0.000000 146.974136 20.018044 80.020462
 95 0 1  0.000000 148.525604 20.015743 79.981461
 96 0 1  0.000000 150.056366 20.000755 79.994644
 97 0 1  0.000000 151.592422 19.979488 79.986740
 98 0 1  0.000000 153.141617 20.017700 80.008026
 99 0 1  0.000000 154.676636 20.015053 80.018112
100 0 1  0.000000 156.214737 20.008934 79.987152
101 1 1  0.000000  3.777925 33.332394 79.998245
102 1 1  0.000000  5.301782 33.353115 79.988266
103 1 1  0.000000  6.834519 33.349682 80.004791
104 1 1  0.000000  8.405509 33.338657 79.986954
105 1 1  0.000000  9.930137 33.324978 79.987610
106 1 1  0.000000 11.470702 33.351261 79.986801
107 1 1  0.000000 13.025862 33.334484 80.018768
108 1 1  0.000000 14.550383 33.328114 79.987274
109 1 1  0.000000 16.100836 33.313602 79.997971
110 1 1  0.000000 17.621264 33.339443 80.016281
111 1 1  0.000000 19.170376 33.351933 80.001968
112 1 1  0.000000 20.725218 33.319973 79.984909
113 1 1  0.000000 22.261387 33.323528 79.996017
114 1 1  0.000000 23.807663 33.345371 80.017654
115 1 1  0.000000 25.344408 33.318569 79.980850
116 1 1  0.000000 26.858377 33.312969 80.004562
117 1 1  0.000000 28.408237 33.331264 80.008865
118 1 1  0.000000 29.936752 33.333889 79.983231
119 1 1  0.000000 31.473372 33.318111 80.000412
120 1 1  0.000000 33.011440 33.339664 79.986832
121 1 1  0.000000 34.568123 33.334652 79.981262
122 1 1  0.000000 36.094864 33.323177 79.992081
123 1 1  0.000000 37.647350 33.322605 79.997818
124 1 1  0.000000 39.205162 33.331455 80.014633
125 1 1  0.000000 40.747311 33.341404 80.003937
126 1 1  0.000000 42.290882 33.325764 80.010162
127 1 1  0.000000 43.800877 33.320141 79.980637
128 1 1  0.000000 45.352924 33.326801 80.016678
129 1 1  0.000000 46.894802 33.327076 80.001312
130 1 1  0.000000 48.448944 33.350483 79.988586
131 1 1  0.000000 49.951374 33.335674 79.995132
132 1 1  0.000000 51.519207 33.326710 79.987274
133 1 1  0.000000 53.060658 33.328091 80.001984
134 1 1  0.000000 54.575359 33.333714 79.982040
135 1 1  0.000000 56.134750 33.349041 79.989532
136 1 1  0.000000 57.654400 33.315357 80.011261
137 1 1  0.000000 59.212936 33.337742 79.984238
138 1 1  0.000000 60.744987 33.342548 80.006866
139 1 1  0.000000 62.271667 33.317158 80.013443
140 1 1  0.000000 63.850716 33.352055 79.983597
141 1 1  0.000000 65.377884 33.324413 80.018265
142 1 1  0.000000 66.923180 33.326138 79.990906
143 1 1  0.000000 68.452042 33.321087 79.994217
144 1 1  0.000000 69.971428 33.324818 79.989410
145 1 1  0.000000 71.544182 33.348286 79.980286
146 1 1  0.000000 73.087051 33.325474 79.985382
147 1 1  0.000000 74.596161 33.333652 79.985153
148 1 1  0.000000 76.160393 33.317402 79.997101
149 1 1  0.000000 77.689133 33.342564 80.020630
150 1 1  0.000000 79.214668 33.333164 79.990143
151 1 1  0.000000 80.755753 33.327457 80.014191
152 1 1  0.000000 82.311317 33.348431 80.001953
153 1 1  0.000000 83.850639 33.345440 80.013062
154 1 1  0.000000 85.401680 33.315533 79.980377
155 1 1  0.000000 86.915771 33.352177 80.019226
156 1 1  0.000000 88.458252 33.320087 80.003052
157 1 1  0.000000 89.994156 33.347858 80.019638
158 1 1  0.000000 91.550552 33.316074 80.013550
159 1 1  0.000000 93.098701 33.346478 80.008408
160 1 1  0.000000 94.618431 33.333118 79.983063
161 1 1  0.000000 96.160072 33.337368 80.005737
162 1 1  0.000000 97.723907 33.337345 80.009918
163 1 1  0.000000 99.230011 33.335567 80.017914
164 1 1  0.000000 100.788239 33.321499 79.994247
165 1 1  0.000000 102.309845 33.335400 80.002731
166 1 1  0.000000 103.889259 33.313320 80.001328
167 1 1  0.000000 105.427605 33.320431 79.989120
168 1 1  0.000000 106.938499 33.344334 79.991577
169 1 1  0.000000 108.484352 33.337032 80.015945
170 1 1  0.000000 110.038681 33.323856 79.997620
171 1 1  0.000000 111.584351 33.336788 80.020020
172 1 1  0.000000 113.106529 33.317623 80.016907
173 1 1  0.000000 114.658516 33.320896 80.014450
174 1 1  0.000000 116.208618 33.350414 80.006241
175 1 1  0.000000 117.748367 33.326008 79.982147
176 1 1  0.000000 119.277718 33.351612 80.004318
177 1 1  0.000000 120.815010 33.319202 80.001892
178 1 1  0.000000 122.331017 33.342892 80.018402
179 1 1  0.000000 123.885086 33.353802 80.005539
180 1 1  0.000000 125.417969 33.317158 80.005920
181 1 1  0.000000 126.985214 33.318989 79.999619
182 1 1  0.000000 128.514160 33.327961 79.997650
183 1 1  0.000000 130.064301 33.349957 80.006912
184 1 1  0.000000 131.581024 33.332607 79.984375
185 1 1  0.000000 133.126312 33.317844 80.017410
186 1 1  0.000000 134.671829 33.314159 80.014328
187 1 1  0.000000 136.222214 33.340389 80.001083
188 1 1  0.000000 137.768585 33.313763 79.991135
189 1 1  0.000000 139.301468 33.328381 79.998199
190 1 1  0.000000 140.813004 33.339901 80.009399
191 1 1  0.000000 142.359406 33.325329 79.985519
192 1 1  0.000000 143.926727 33.328770 80.006760
193 1 1  0.000000 145.455002 33.320515 79.995514
194 1 1  0.000000 146.986832 33.340557 79.998032
195 1 1  0.000000 148.515793 33.320629 80.010773
196 1 1  0.000000 150.074875 33.317951 80.016037
197 1 1  0.000000 151.611710 33.314297 80.007080
198 1 1  0.000000 153.132828 33.313938 80.012360
199 1 1  0.000000 154.681686 33.330021 80.018311
200 1 1  0.000000 156.213181 33.348446 79.990814
201 2 1  0.000000  3.765237 46.683262 79.987335
202 2 1  0.000000  5.305374 46.652027 79.989746
203 2 1  0.000000  6.848226 46.651241 79.987305
204 2 1  0.000000  8.376806 46.676640 80.001175
205 2 1  0.000000  9.946698 46.681149 80.007889
206 2 1  0.000000 11.469774 46.685390 80.018021
207 2 1  0.000000 13.008399 46.651188 79.993881
208 2 1  0.000000 14.545143 46.651310 80.001022
209 2 1  0.000000 16.098469 46.663601 79.985245
210 2 1  0.000000 17.627502 46.670330 80.003845
211 2 1  0.000000 19.158985 46.656719 80.015274
212 2 1  0.000000 20.721907 46.687016 79.987122
213 2 1  0.000000 22.240273 46.685749 80.020554
214 2 1  0.000000 23.797752 46.686459 79.991821
215 2 1  0.000000 25.317377 46.682430 79.988525
216 2 1  0.000000 26.862720 46.654957 80.000778
217 2 1  0.000000 28.404564 46.665585 79.984512
218 2 1  0.000000 29.958675 46.664379 80.019562
219 2 1  0.000000 31.504070 46.682796 80.014221
220 2 1  0.000000 33.043400 46.667820 79.984344
221 2 1  0.000000 34.550552 46.665241 79.981613
222 2 1  0.000000 36.105995 46.653179 79.993942
223 2 1  0.000000 37.640488 46.646282 79.998032
224 2 1  0.000000 39.204700 46.686039 80.009018
225 2 1  0.000000 40.713875 46.653095 79.994247
226 2 1  0.000000 42.259048 46.663242 80.020615
227 2 1  0.000000 43.812855 46.679630 80.003525
228 2 1  0.000000 45.347305 46.685093 80.005981
229 2 1  0.000000 46.877525 46.682865 79.993149
230 2 1  0.000000 48.433857 46.665577 80.001099
231 2 1  0.000000 49.969547 46.647900 79.997589
232 2 1  0.000000 51.497334 46.670597 79.993027
233 2 1  0.000000 53.070641 46.649982 79.984360
234 2 1  0.000000 54.576405 46.654255 79.998901
235 2 1  0.000000 56.131920 46.662163 79.986145
236 2 1  0.000000 57.652279 46.687244 80.017014
237 2 1  0.000000 59.214142 46.685505 79.982803
238 2 1  0.000000 60.764889 46.654873 80.009293
239 2 1  0.000000 62.273754 46.653851 79.989670
240 2 1  0.000000 63.824192 46.646152 80.012680
241 2 1  0.000000 65.373177 46.655025 80.013184
242 2 1  0.000000 66.922119 46.649952 79.990875
243 2 1  0.000000 68.456886 46.679577 79.983154
244 2 1  0.000000 69.978966 46.651371 80.005676
245 2 1  0.000000 71.547203 46.672436 79.992935
246 2 1  0.000000 73.054520 46.675831 80.016449
247 2 1  0.000000 74.606506 46.674465 79.986435
248 2 1  0.000000 76.146240 46.685635 79.996246
249 2 1  0.000000 77.710884 46.650440 80.017059
250 2 1  0.000000 79.250725 46.663982 79.982010
251 2 1  0.000000 80.751091 46.670261 79.988297
252 2 1  0.000000 82.294495 46.684444 80.019760
253 2 1  0.000000 83.848763 46.646404 80.019424
254 2 1  0.000000 85.400177 46.672565 80.017273
255 2 1  0.000000 86.919090 46.647205 80.006104
256 2 1  0.000000 88.480858 46.657200 80.006561
257 2 1  0.000000 90.029411 46.679325 79.988052
258 2 1  0.000000 91.569801 46.665653 79.995621
259 2 1  0.000000 93.075264 46.684490 80.008957
260 2 1  0.000000 94.642372 46.659008 79.986969
261 2 1  0.000000 96.165054 46.679623 80.003723
262 2 1  0.000000 97.692696 46.670979 79.982361
263 2 1  0.000000 99.268173 46.666912 80.019150
264 2 1  0.000000 100.770836 46.662128 79.993515
265 2 1  0.000000 102.313850 46.674778 80.000061
266 2 1  0.000000 103.881485 46.657871 79.997360
267 2 1  0.000000 105.421867 46.685955 79.998886
268 2 1  0.000000 106.943344 46.676235 80.000885
269 2 1  0.000000 108.476463 46.668430 80.002762
270 2 1  0.000000 110.035896 46.652805 79.994431
271 2 1  0.000000 111.558289 46.657734 80.004547
272 2 1  0.000000 113.111481 46.672131 80.013962
273 2 1  0.000000 114.666992 46.672451 79.987473
274 2 1  0.000000 116.193878 46.660076 80.020309
275 2 1  0.000000 117.723503 46.656216 80.007339
276 2 1  0.000000 119.269470 46.654087 79.989090
277 2 1  0.000000 120.806404 46.669697 79.996124
278 2 1  0.000000 122.370911 46.652393 80.017761
279 2 1  0.000000 123.895721 46.678326 79.981369
280 2 1  0.000000 125.418503 46.661404 79.984924
281 2 1  0.000000 126.954216 46.661617 79.989700
282 2 1  0.000000 128.503830 46.682041 79.980972
283 2 1  0.000000 130.039276 46.662800 80.012360
284 2 1  0.000000 131.609940 46.683300 80.019135
285 2 1  0.000000 133.134155 46.677616 80.017288
286 2 1  0.000000 134.664627 46.661716 79.980850
287 2 1  0.000000 136.202469 46.681698 80.000656
288 2 1  0.000000 137.739487 46.664722 80.019852
289 2 1  0.000000 139.289246 46.649189 79.990280
290 2 1  0.000000 140.819916 46.674015 79.994278
291 2 1  0.000000 142.386703 46.648441 79.990860
292 2 1  0.000000 143.903275 46.648113 79.983963
293 2 1  0.000000 145.457245 46.683140 80.019302
294 2 1  0.000000 147.000732 46.653347 80.019913
295 2 1  0.000000 148.517960 46.674953 80.008698
296 2 1  0.000000 150.078751 46.646992 79.996246
297 2 1  0.000000 151.616272 46.675976 79.988037
298 2 1  0.000000 153.163391 46.677631 80.001053
299 2 1  0.000000 154.678665 46.682110 79.984497
300 2 1  0.000000 156.230911 46.664448 80.014694
301 3 1  0.000000  3.752506 60.010490 79.993286
302 3 1  0.000000  5.298211 59.988914 80.012344
303 3 1  0.000000  6.839919 59.985977 80.007584
304 3 1  0.000000  8.404113 60.005882 80.019501
305 3 1  0.000000  9.949031 59.985626 80.001801
306 3 1  0.000000 11.470844 59.992226 79.981888
307 3 1  0.000000 13.015580 59.993889 79.998474
308 3 1  0.000000 14.537197 59.999092 79.984207
309 3 1  0.000000 16.072477 59.994232 79.985870
310 3 1  0.000000 17.626171 60.014320 80.001556
311 3 1  0.000000 19.163994 60.006058 79.989639
312 3 1  0.000000 20.693071 60.008110 80.012894
313 3 1  0.000000 22.235357 59.982903 79.993752
314 3 1  0.000000 23.797073 60.013344 80.017410
315 3 1  0.000000 25.328915 59.994293 80.019928
316 3 1  0.000000 26.879984 59.984802 79.989761
317 3 1  0.000000 28.393187 60.015450 79.986237
318 3 1  0.000000 29.948509 59.979378 80.012054
319 3 1  0.000000 31.507452 60.003426 79.997849
320 3 1  0.000000 33.015656 59.989410 80.018707
321 3 1  0.000000 34.568592 60.020378 80.013641
322 3 1  0.000000 36.127850 59.980743 79.994034
323 3 1  0.000000 37.645576 60.013145 80.013107
324 3 1  0.000000 39.178429 60.018875 79.994812
325 3 1  0.000000 40.716026 60.015404 80.007095
326 3 1  0.000000 42.263519 60.016174 79.997803
327 3 1  0.000000 43.817177 60.002899 80.006836
328 3 1  0.000000 45.360130 60.017029 79.995499
329 3 1  0.000000 46.906101 59.994698 80.007584
330 3 1  0.000000 48.414360 60.009117 80.013458
331 3 1  0.000000 49.967304 59.996521 80.006638
332 3 1  0.000000 51.529041 59.992043 80.016708
333 3 1  0.000000 53.066128 60.013115 80.002258
334 3 1  0.000000 54.605629 59.984535 80.017990
335 3 1  0.000000 56.111706 60.008476 80.002869
336 3 1  0.000000 57.685604 60.006027 79.987091
337 3 1  0.000000 59.223625 59.982903 80.008530
338 3 1  0.000000 60.734558 60.020119 79.993103
339 3 1  0.000000 62.297630 60.015549 80.009201
340 3 1  0.000000 63.830139 60.019943 79.996262
341 3 1  0.000000 65.356567 59.986938 79.989563
342 3 1  0.000000 66.896904 60.009552 80.003143
343 3 1  0.000000 68.467621 59.993996 79.985352
344 3 1  0.000000 69.999649 60.011627 79.988541
345 3 1  0.000000 71.542404 59.996986 79.998749
346 3 1  0.000000 73.087090 60.001328 79.986099
347 3 1  0.000000 74.626694 60.007874 79.991165
348 3 1  0.000000 76.151985 60.013809 80.002106
349 3 1  0.000000 77.684639 60.001564 80.016144
350 3 1  0.000000 79.230797 59.980247 79.995193
351 3 1  0.000000 80.781158 60.020439 80.014389
352 3 1  0.000000 82.302757 60.006851 79.989349
353 3 1  0.000000 83.862747 59.995613 79.989471
354 3 1  0.000000 85.379135 59.995018 80.020065
355 3 1  0.000000 86.939781 59.995445 80.019592
356 3 1  0.000000 88.459816 59.993904 80.002228
357 3 1  0.000000 90.000191 59.981018 80.009613
358 3 1  0.000000 91.535820 59.998993 80.016739
359 3 1  0.000000 93.107300 60.014854 79.985718
360 3 1  0.000000 94.612213 60.000237 79.998810
361 3 1  0.000000 96.150566 60.019829 79.989197
362 3 1  0.000000 97.714615 59.995323 80.002640
363 3 1  0.000000 99.254852 59.989952 79.990860
364 3 1  0.000000 100.798798 60.014702 80.006592
365 3 1  0.000000 102.325951 59.979935 79.988785
366 3 1  0.000000 103.868935 60.006981 80.010757
367 3 1  0.000000 105.413025 60.005104 79.981781
368 3 1  0.000000 106.949661 59.982964 79.980072
369 3 1  0.000000 108.475662 59.991722 80.012039
370 3 1  0.000000 110.014336 59.983704 80.004272
371 3 1  0.000000 111.576790 60.004524 80.003159
372 3 1  0.000000 113.125923 60.013885 80.019409
373 3 1  0.000000 114.645981 59.988007 79.986725
374 3 1  0.000000 116.204910 60.015579 80.000824
375 3 1  0.000000 117.716087 60.008675 80.012177
376 3 1  0.000000 119.286125 59.997391 79.988693
377 3 1  0.000000 120.806496 60.001442 79.990372
378 3 1  0.000000 122.332664 59.981094 80.000122
379 3 1  0.000000 123.901138 60.003639 79.990967
380 3 1  0.000000 125.417381 59.983017 79.994965
381 3 1  0.000000 126.979126 59.995506 79.988876
382 3 1  0.000000 128.496033 60.002235 80.002197
383 3 1  0.000000 130.050369 59.988457 80.008255
384 3 1  0.000000 131.571854 60.009857 80.018448
385 3 1  0.000000 133.140121 59.983040 79.981537
386 3 1  0.000000 134.649826 59.997437 80.015854
387 3 1  0.000000 136.224655 59.993591 79.998856
388 3 1  0.000000 137.736053 60.011787 80.013824
389 3 1  0.000000 139.285599 60.009041 79.991867
390 3 1  0.000000 140.833969 59.991539 80.001450
391 3 1  0.000000 142.352036 60.009872 79.994675
392 3 1  0.000000 143.906891 59.998726 80.011963
393 3 1  0.000000 145.470184 60.011688 79.994705
394 3 1  0.000000 146.988419 59.989273 79.981888
395 3 1  0.000000 148.513748 59.998314 79.991058
396 3 1  0.000000 150.083527 59.985970 79.984268
397 3 1  0.000000 151.624847 60.018219 79.995483
398 3 1  0.000000 153.149811 60.002907 79.991104
399 3 1  0.000000 154.702194 60.004639 79.981842
400 3 1  0.000000 156.222214 60.016785 80.014084
401 4 1  0.000000  3.777105 73.344826 79.999054
402 4 1  0.000000  5.292286 73.340187 79.985138
403 4 1  0.000000  6.844163 73.325874 79.998306
404 4 1  0.000000  8.401074 73.335045 79.984924
405 4 1  0.000000  9.918705 73.351707 79.989700
406 4 1  0.000000 11.490808 73.329277 80.013977
407 4 1  0.000000 13.007732 73.329567 80.018250
408 4 1  0.000000 14.548688 73.343056 79.998428
409 4 1  0.000000 16.097317 73.348427 79.994553
410 4 1  0.000000 17.645773 73.353416 80.011276
411 4 1  0.000000 19.182970 73.336281 79.984497
412 4 1  0.000000 20.697458 73.338005 80.013123
413 4 1  0.000000 22.231272 73.315559 79.993454
414 4 1  0.000000 23.774435 73.319130 80.012222
415 4 1  0.000000 25.345385 73.326408 79.995682
416 4 1  0.000000 26.868256 73.350365 79.982819
417 4 1  0.000000 28.402954 73.316582 80.005600
418 4 1  0.000000 29.961031 73.324394 79.983795
419 4 1  0.000000 31.488567 73.316719 79.988724
420 4 1  0.000000 33.039272 73.345390 80.013947
421 4 1  0.000000 34.580929 73.341621 80.003723
422 4 1  0.000000 36.103912 73.315315 79.991821
423 4 1  0.000000 37.651539 73.341652 80.010880
424 4 1  0.000000 39.193413 73.347176 80.009048
425 4 1  0.000000 40.721115 73.318977 79.982254
426 4 1  0.000000 42.262634 73.318443 79.996323
427 4 1  0.000000 43.797703 73.316750 80.007111
428 4 1  0.000000 45.353340 73.344841 79.991791
429 4 1  0.000000 46.885590 73.315559 79.985825
430 4 1  0.000000 48.417797 73.323753 79.988846
431 4 1  0.000000 49.984306 73.341362 79.996063
432 4 1  0.000000 51.503433 73.332588 79.996460
433 4 1  0.000000 53.053162 73.326241 79.980301
434 4 1  0.000000 54.607899 73.349129 80.010132
435 4 1  0.000000 56.112259 73.343468 79.996689
436 4 1  0.000000 57.685265 73.331581 79.996185
437 4 1  0.000000 59.229557 73.322411 80.013077
438 4 1  0.000000 60.757298 73.338722 80.000854
439 4 1  0.000000 62.298843 73.318336 80.012985
440 4 1  0.000000 63.815350 73.349846 80.005798
441 4 1  0.000000 65.380119 73.343147 80.003128
442 4 1  0.000000 66.906540 73.333107 79.980911
443 4 1  0.000000 68.433998 73.330864 80.014801
444 4 1  0.000000 69.988213 73.318214 79.999359
445 4 1  0.000000 71.533081 73.330193 80.004349
446 4 1  0.000000 73.084335 73.334114 79.989899
447 4 1  0.000000 74.591965 73.348366 80.019669
448 4 1  0.000000 76.144493 73.335060 79.991547
449 4 1  0.000000 77.685677 73.325722 79.986801
450 4 1  0.000000 79.212532 73.342369 79.982468
451 4 1  0.000000 80.782669 73.315788 80.016449
452 4 1  0.000000 82.328178 73.313011 80.012527
453 4 1  0.000000 83.861465 73.319664 80.013931
454 4 1  0.000000 85.375931 73.327080 80.004181
455 4 1  0.000000 86.942711 73.346855 80.011841
456 4 1  0.000000 88.464043 73.336281 80.020340
457 4 1  0.000000 89.993973 73.347450 80.012527
458 4 1  0.000000 91.546677 73.347633 79.991318
459 4 1  0.000000 93.107819 73.344139 79.980347
460 4 1  0.000000 94.617943 73.346855 80.006760
461 4 1  0.000000 96.168266 73.339027 79.990692
462 4 1  0.000000 97.689720 73.347176 80.005798
463 4 1  0.000000 99.256882 73.341881 80.020203
464 4 1  0.000000 100.788414 73.338249 79.997147
465 4 1  0.000000 102.318924 73.335396 80.015350
466 4 1  0.000000 103.857880 73.332802 80.010498
467 4 1  0.000000 105.418343 73.326698 80.014343
468 4 1  0.000000 106.959755 73.353172 80.020233
469 4 1  0.000000 108.477898 73.334465 79.996506
470 4 1  0.000000 110.035629 73.337105 79.981339
471 4 1  0.000000 111.582825 73.352058 79.993484
472 4 1  0.000000 113.092026 73.348534 80.000122
473 4 1  0.000000 114.647865 73.353462 80.020035
474 4 1  0.000000 116.198784 73.316002 80.018936
475 4 1  0.000000 117.744843 73.350777 79.984268
476 4 1  0.000000 119.262688 73.321007 80.004807
477 4 1  0.000000 120.820824 73.331993 80.015335
478 4 1  0.000000 122.350906 73.344872 79.996170
479 4 1  0.000000 123.902306 73.341286 80.005417
480 4 1  0.000000 125.416054 73.331963 80.005417
481 4 1  0.000000 126.967636 73.347954 79.980972
482 4 1  0.000000 128.511917 73.313148 80.012894
483 4 1  0.000000 130.069275 73.315376 79.980057
484 4 1  0.000000 131.590652 73.321907 80.015640
485 4 1  0.000000 133.141602 73.323357 80.010132
486 4 1  0.000000 134.666626 73.319511 80.013138
487 4 1  0.000000 136.207779 73.328239 80.000595
488 4 1  0.000000 137.757462 73.317314 80.007858
489 4 1  0.000000 139.288925 73.324211 79.997910
490 4 1  0.000000 140.816635 73.316765 80.011322
491 4 1  0.000000 142.368774 73.338524 80.013489
492 4 1  0.000000 143.926895 73.320702 80.003983
493 4 1  0.000000 145.430283 73.329094 79.999863
494 4 1  0.000000 146.973831 73.322502 80.002625
495 4 1  0.000000 148.533234 73.347237 79.983170
496 4 1  0.000000 150.072083 73.331139 79.999084
497 4 1  0.000000 151.602554 73.329460 80.009109
498 4 1  0.000000 153.141388 73.327232 79.998993
499 4 1  0.000000 154.674652 73.330437 80.007568
500 4 1  0.000000 156.229034 73.344048 80.004425
501 5 1  0.000000  3.753298 86.659843 79.992264
502 5 1  0.000000  5.307654 86.684242 79.980270
503 5 1  0.000000  6.836326 86.671059 80.015533
504 5 1  0.000000  8.385182 86.687004 79.993713
505 5 1  0.000000  9.933864 86.657219 80.007828
506 5 1  0.000000 11.478315 86.650169 79.985474
507 5 1  0.000000 13.019573 86.669212 80.010147
508 5 1  0.000000 14.537432 86.659767 79.986282
509 5 1  0.000000 16.100702 86.678444 79.994125
510 5 1  0.000000 17.632637 86.674156 79.981827
511 5 1  0.000000 19.171555 86.673698 79.989899
512 5 1  0.000000 20.694229 86.670204 79.988586
513 5 1  0.000000 22.269409 86.682228 80.002106
514 5 1  0.000000 23.804209 86.651085 79.988007
515 5 1  0.000000 25.322559 86.684013 79.995819
516 5 1  0.000000 26.876034 86.653267 80.005981
517 5 1  0.000000 28.423271 86.656639 80.012115
518 5 1  0.000000 29.930067 86.674965 79.980331
519 5 1  0.000000 31.495970 86.664604 80.007019
520 5 1  0.000000 33.036461 86.657936 80.009216
521 5 1  0.000000 34.555065 86.673988 80.010834
522 5 1  0.000000 36.130604 86.648155 80.010330
523 5 1  0.000000 37.666931 86.686134 79.986816
524 5 1  0.000000 39.180798 86.663109 80.007553
525 5 1  0.000000 40.716000 86.678123 79.991959
526 5 1  0.000000 42.276443 86.655876 80.005356
527 5 1  0.000000 43.823391 86.652580 80.019104
528 5 1  0.000000 45.346714 86.654991 79.985657
529 5 1  0.000000 46.877033 86.685005 80.018570
530 5 1  0.000000 48.444691 86.684639 79.984467
531 5 1  0.000000 49.974339 86.678261 80.002640
532 5 1  0.000000 51.518509 86.686241 79.995514
533 5 1  0.000000 53.031799 86.655785 79.988144
534 5 1  0.000000 54.585873 86.668098 79.993896
535 5 1  0.000000 56.135147 86.657661 79.980118
536 5 1  0.000000 57.688293 86.684380 79.989197
537 5 1  0.000000 59.190895 86.649498 79.984650
538 5 1  0.000000 60.748631 86.660378 79.985092
539 5 1  0.000000 62.298801 86.648903 80.015305
540 5 1  0.000000 63.837120 86.657234 80.002289
541 5 1  0.000000 65.364319 86.652168 80.017899
542 5 1  0.000000 66.929314 86.654839 80.006531
543 5 1  0.000000 68.470230 86.680580 79.990814
544 5 1  0.000000 70.008553 86.662102 80.004593
545 5 1  0.000000 71.540428 86.651100 79.996765
546 5 1  0.000000 73.059586 86.676613 80.000595
547 5 1  0.000000 74.608459 86.653496 80.001892
548 5 1  0.000000 76.155518 86.674675 80.008408
549 5 1  0.000000 77.681274 86.652199 79.994583
550 5 1  0.000000 79.217690 86.661446 79.994171
551 5 1  0.000000 80.770271 86.654732 79.996201
552 5 1  0.000000 82.325623 86.685951 80.006500
553 5 1  0.000000 83.832710 86.650856 79.997192
554 5 1  0.000000 85.406174 86.669121 79.984573
555 5 1  0.000000 86.939850 86.649864 79.988510
556 5 1  0.000000 88.466934 86.658409 80.009232
557 5 1  0.000000 89.995682 86.659035 79.997131
558 5 1  0.000000 91.550880 86.671959 79.993088
559 5 1  0.000000 93.077171 86.670021 80.000336
560 5 1  0.000000 94.642426 86.647484 79.990646
561 5 1  0.000000 96.182350 86.661812 80.018021
562 5 1  0.000000 97.699821 86.664604 79.983276
563 5 1  0.000000 99.252609 86.666084 80.002762
564 5 1  0.000000 100.769707 86.683403 79.998184
565 5 1  0.000000 102.339874 86.660957 79.984756
566 5 1  0.000000 103.858322 86.671028 79.986862
567 5 1  0.000000 105.391342 86.678596 80.008926
568 5 1  0.000000 106.963531 86.667473 79.984604
569 5 1  0.000000 108.499390 86.670280 79.980392
570 5 1  0.000000 110.022346 86.682335 79.985382
571 5 1  0.000000 111.573540 86.678825 79.983063
572 5 1  0.000000 113.119965 86.672569 80.013870
573 5 1  0.000000 114.661819 86.668633 79.984558
574 5 1  0.000000 116.182373 86.647285 80.004089
575 5 1  0.000000 117.715897 86.651268 79.982956
576 5 1  0.000000 119.268593 86.657600 79.983337
577 5 1  0.000000 120.827232 86.651909 80.015991
578 5 1  0.000000 122.369896 86.678520 80.017075
579 5 1  0.000000 123.870354 86.658180 80.018021
580 5 1  0.000000 125.443634 86.675011 80.010590
581 5 1  0.000000 126.952316 86.652695 79.988647
582 5 1  0.000000 128.511932 86.656929 80.019608
583 5 1  0.000000 130.036377 86.686089 79.997696
584 5 1  0.000000 131.594238 86.680336 80.003189
585 5 1  0.000000 133.143875 86.664513 79.992279
586 5 1  0.000000 134.672134 86.666206 80.018585
587 5 1  0.000000 136.213837 86.662132 80.014435
588 5 1  0.000000 137.763382 86.647469 79.997391
589 5 1  0.000000 139.278214 86.668709 79.985138
590 5 1  0.000000 140.831940 86.670174 80.011169
591 5 1  0.000000 142.365372 86.681572 80.003281
592 5 1  0.000000 143.926514 86.678581 79.985886
593 5 1  0.000000 145.459244 86.681160 80.016052
594 5 1  0.000000 146.979279 86.670692 80.005554
595 5 1  0.000000 148.542572 86.673302 80.015244
596 5 1  0.000000 150.086609 86.660042 79.993942
597 5 1  0.000000 151.630722 86.678230 80.010574
598 5 1  0.000000 153.143570 86.661674 80.017563
599 5 1  0.000000 154.703094 86.686882 79.992981
600 5 1  0.000000 156.246719 86.647331 80.001251
601 6 1  0.000000  3.786547 100.006958 79.999680
602 6 1  0.000000  5.292750 99.980133 80.017532
603 6 1  0.000000  6.845832 99.980881 79.989548
604 6 1  0.000000  8.397534 99.980057 80.002396
605 6 1  0.000000  9.942096 99.985733 79.999390
606 6 1  0.000000 11.459085 100.009323 80.007736
607 6 1  0.000000 13.016589 99.983200 80.013977
608 6 1  0.000000 14.539900 100.013489 79.996323
609 6 1  0.000000 16.109335 100.010788 79.992889
610 6 1  0.000000 17.626467 100.016052 80.007645
611 6 1  0.000000 19.182030 100.013611 80.016495
612 6 1  0.000000 20.715555 100.016876 79.991470
613 6 1  0.000000 22.237394 99.979324 80.019989
614 6 1  0.000000 23.805464 99.985992 80.017273