Created with TaichiMD

1000 atoms
990 bonds
  0 angles
  0 dihedrals
  0 impropers

1 atom types
1 bond types
0 angle types
0 dihedral types
0 improper types

-80.00000  80.00000 xlo xhi
-80.00000  80.00000 ylo yhi
-80.00000  80.00000 zlo zhi

Masses

1 10.0000

Atoms

  1 0 1  0.000000 79.147881  0.834011 90.239403
  2 0 1  0.000000 80.725807  0.956914 90.632988
  3 0 1  0.000000 81.364891  1.608029 91.780235
  4 0 1  0.000000 81.468445  2.705767 90.306992
  5 0 1  0.000000 81.099518  4.135540 90.812126
  6 0 1  0.000000 81.432983  5.724259 89.722763
  7 0 1  0.000000 82.693245  4.748820 89.052948
  8 0 1  0.000000 83.764091  5.629053 90.138824
  9 0 1  0.000000 84.824219  5.060549 91.299294
 10 0 1  0.000000 84.047379  6.088824 92.371468
 11 0 1  0.000000 84.990448  5.815851 93.790390
 12 0 1  0.000000 84.426865  5.110608 95.040680
 13 0 1  0.000000 84.218185  6.780941 94.949921
 14 0 1  0.000000 85.972260  7.780697 95.350746
 15 0 1  0.000000 87.158005  8.624804 96.344009
 16 0 1  0.000000 87.619675  9.725130 94.705666
 17 0 1  0.000000 89.271912  8.593575 95.072403
 18 0 1  0.000000 88.853622  7.569670 93.763420
 19 0 1  0.000000 88.774239  8.494888 92.428215
 20 0 1  0.000000 88.753822  7.847564 90.977386
 21 0 1  0.000000 90.229279  9.286718 90.881889
 22 0 1  0.000000 90.522003  7.400703 90.335663
 23 0 1  0.000000 91.004089  7.303978 89.201157
 24 0 1  0.000000 91.967644  6.018491 89.185623
 25 0 1  0.000000 93.102768  7.175813 89.872459
 26 0 1  0.000000 94.178314  6.865132 88.659454
 27 0 1  0.000000 94.063988  8.692460 89.454170
 28 0 1  0.000000 94.071030 10.463459 88.943382
 29 0 1  0.000000 92.596649 10.742590 87.764923
 30 0 1  0.000000 91.314720 11.933494 87.011749
 31 0 1  0.000000 89.951225 11.584585 86.365616
 32 0 1  0.000000 88.805855 12.032027 85.526924
 33 0 1  0.000000 87.696945 12.284008 85.918495
 34 0 1  0.000000 86.508698 12.208277 87.272987
 35 0 1  0.000000 86.402985 13.381400 86.587036
 36 0 1  0.000000 86.058640 12.767770 85.150650
 37 0 1  0.000000 84.467224 13.567681 86.439583
 38 0 1  0.000000 84.345993 15.562001 86.402565
 39 0 1  0.000000 82.816551 15.493606 87.224411
 40 0 1  0.000000 81.407501 16.747551 87.534737
 41 0 1  0.000000 81.679314 17.857628 86.679756
 42 0 1  0.000000 81.614685 19.537209 87.699821
 43 0 1  0.000000 83.501617 19.870419 88.452469
 44 0 1  0.000000 81.870438 20.651461 87.371223
 45 0 1  0.000000 80.606827 20.410418 85.640968
 46 0 1  0.000000 79.790749 21.556456 85.279541
 47 0 1  0.000000 79.730553 20.135254 84.595047
 48 0 1  0.000000 79.227776 18.349869 83.360298
 49 0 1  0.000000 79.384331 18.604368 82.227242
 50 0 1  0.000000 81.286469 19.182154 82.318085
 51 0 1  0.000000 83.163940 19.247623 82.275940
 52 0 1  0.000000 84.559814 18.896292 81.384789
 53 0 1  0.000000 85.814087 19.767044 82.621620
 54 0 1  0.000000 85.552353 20.803123 84.006538
 55 0 1  0.000000 86.133873 22.032198 85.013542
 56 0 1  0.000000 87.216164 21.674582 85.830498
 57 0 1  0.000000 88.090324 20.048002 86.661461
 58 0 1  0.000000 88.181648 20.639799 87.910149
 59 0 1  0.000000 86.858704 21.449169 89.239807
 60 0 1  0.000000 86.033661 22.364016 89.881241
 61 0 1  0.000000 85.214706 23.567331 90.486069
 62 0 1  0.000000 83.776199 24.327963 90.755943
 63 0 1  0.000000 83.896019 24.292000 92.016449
 64 0 1  0.000000 82.722778 25.607841 93.283440
 65 0 1  0.000000 81.244843 26.356504 94.663940
 66 0 1  0.000000 79.567520 26.655363 93.823097
 67 0 1  0.000000 78.877487 25.325691 94.490997
 68 0 1  0.000000 79.055138 24.060230 94.339958
 69 0 1  0.000000 77.952522 24.523474 95.626793
 70 0 1  0.000000 76.678513 23.991850 93.843384
 71 0 1  0.000000 75.285080 24.207565 93.702866
 72 0 1  0.000000 75.509483 24.537931 95.250656
 73 0 1  0.000000 74.129616 24.743351 95.673721
 74 0 1  0.000000 73.309219 23.919775 96.705307
 75 0 1  0.000000 72.266518 23.822912 95.519547
 76 0 1  0.000000 71.010765 23.633230 95.156044
 77 0 1  0.000000 71.220825 22.672415 96.583282
 78 0 1  0.000000 69.996895 21.577848 97.930122
 79 0 1  0.000000 69.135635 22.985605 98.951134
 80 0 1  0.000000 69.276421 22.151155 100.128151
 81 0 1  0.000000 69.129669 22.688461 101.746346
 82 0 1  0.000000 69.492569 21.702864 102.721809
 83 0 1  0.000000 70.358879 22.669876 104.127281
 84 0 1  0.000000 69.472466 24.190453 105.278687
 85 0 1  0.000000 70.910866 24.733225 106.246620
 86 0 1  0.000000 71.799286 25.828968 107.588463
 87 0 1  0.000000 71.642929 27.571001 107.751106
 88 0 1  0.000000 71.926643 26.639511 107.519043
 89 0 1  0.000000 73.069786 28.032148 106.461639
 90 0 1  0.000000 73.978043 28.724651 105.170647
 91 0 1  0.000000 74.743660 28.640802 103.730560
 92 0 1  0.000000 75.445389 29.066439 104.911926
 93 0 1  0.000000 75.838638 28.435871 103.869926
 94 0 1  0.000000 75.845146 28.238108 102.447258
 95 0 1  0.000000 76.289909 27.266586 101.040848
 96 0 1  0.000000 78.029640 26.508387 101.068108
 97 0 1  0.000000 78.419930 27.029310 101.978462
 98 0 1  0.000000 79.709511 27.427731 102.824272
 99 0 1  0.000000 81.060127 26.718296 103.679642
100 0 1  0.000000 81.180367 28.289896 102.718918
101 1 1  0.000000 89.605896 30.835829 92.233879
102 1 1  0.000000 89.866341 29.537790 93.052925
103 1 1  0.000000 90.239960 27.992603 94.069427
104 1 1  0.000000 90.234703 29.402670 94.506287
105 1 1  0.000000 92.259781 29.540337 95.569435
106 1 1  0.000000 93.546379 29.027092 95.672180
107 1 1  0.000000 93.186821 30.719837 95.581200
108 1 1  0.000000 93.535011 31.892124 95.238617
109 1 1  0.000000 94.307327 31.512388 93.947380
110 1 1  0.000000 94.701073 32.877586 94.647491
111 1 1  0.000000 94.878090 32.647377 93.422470
112 1 1  0.000000 95.260086 34.014668 92.629662
113 1 1  0.000000 97.214821 34.081825 92.593285
114 1 1  0.000000 97.187851 35.721939 91.852989
115 1 1  0.000000 98.284584 35.534382 92.096535
116 1 1  0.000000 96.819031 35.596962 90.659805
117 1 1  0.000000 95.640129 34.749043 89.307686
118 1 1  0.000000 95.499016 33.581234 88.764778
119 1 1  0.000000 96.447769 33.615883 87.793106
120 1 1  0.000000 98.072609 33.056408 87.091438
121 1 1  0.000000 98.432373 32.268478 85.663750
122 1 1  0.000000 99.150055 31.223446 84.429863
123 1 1  0.000000 100.424042 30.702545 83.685463
124 1 1  0.000000 101.802521 29.595797 84.106232
125 1 1  0.000000 100.708099 29.490961 85.039062
126 1 1  0.000000 102.279663 28.808407 84.233803
127 1 1  0.000000 103.527092 28.914255 85.399467
128 1 1  0.000000 104.819321 29.588259 86.033195
129 1 1  0.000000 105.991562 30.590225 86.821892
130 1 1  0.000000 107.299072 31.986975 86.567665
131 1 1  0.000000 105.979752 32.381336 86.645287
132 1 1  0.000000 104.805847 33.243385 87.909409
133 1 1  0.000000 104.023033 33.883980 89.254761
134 1 1  0.000000 103.291710 34.996941 89.871613
135 1 1  0.000000 101.747986 35.865784 90.391319
136 1 1  0.000000 102.928925 37.165512 90.710785
137 1 1  0.000000 103.479553 36.832531 89.687523
138 1 1  0.000000 102.165779 38.118214 90.205666
139 1 1  0.000000 101.879761 38.900101 89.362076
140 1 1  0.000000 100.753410 39.886608 90.279823
141 1 1  0.000000 100.493874 41.499554 89.371536
142 1 1  0.000000 98.757042 42.259113 89.419594
143 1 1  0.000000 97.989532 42.261356 88.660858
144 1 1  0.000000 96.096550 42.832397 89.322235
145 1 1  0.000000 95.858963 44.468681 89.493538
146 1 1  0.000000 93.813416 44.952911 90.198547
147 1 1  0.000000 92.604996 44.006771 90.773033
148 1 1  0.000000 91.529655 44.507526 89.351501
149 1 1  0.000000 91.380447 43.347816 90.467560
150 1 1  0.000000 89.201378 43.612602 90.700577
151 1 1  0.000000 87.633331 43.363796 90.679306
152 1 1  0.000000 87.494820 42.192581 91.739059
153 1 1  0.000000 85.799522 41.865040 91.865791
154 1 1  0.000000 85.620041 41.133427 93.625961
155 1 1  0.000000 84.435738 40.448807 92.524239
156 1 1  0.000000 83.008865 40.109299 91.729370
157 1 1  0.000000 82.272552 40.521027 91.004005
158 1 1  0.000000 81.372658 40.012867 89.937271
159 1 1  0.000000 79.805855 39.798771 89.122955
160 1 1  0.000000 78.440491 40.482304 89.033821
161 1 1  0.000000 77.271324 40.523041 88.071579
162 1 1  0.000000 75.661476 40.585911 88.336861
163 1 1  0.000000 74.555603 39.349060 87.076973
164 1 1  0.000000 72.815781 39.872402 87.001030
165 1 1  0.000000 71.601906 39.461121 86.446251
166 1 1  0.000000 71.525002 39.546528 84.706848
167 1 1  0.000000 71.521431 38.834732 82.942589
168 1 1  0.000000 70.659470 38.336426 81.338348
169 1 1  0.000000 69.462944 37.518013 80.838089
170 1 1  0.000000 70.622452 36.901375 79.567612
171 1 1  0.000000 70.093842 37.205479 77.881348
172 1 1  0.000000 70.865128 36.682434 76.410172
173 1 1  0.000000 70.760864 36.842613 74.481468
174 1 1  0.000000 69.883934 36.784512 73.045860
175 1 1  0.000000 71.155724 35.722618 72.248627
176 1 1  0.000000 72.297318 35.950031 73.177872
177 1 1  0.000000 73.958054 35.364391 73.913330
178 1 1  0.000000 74.457939 36.503807 72.162529
179 1 1  0.000000 74.909836 35.849186 71.278702
180 1 1  0.000000 75.078300 34.053341 71.446442
181 1 1  0.000000 75.652252 34.078873 69.799690
182 1 1  0.000000 76.355499 34.846462 68.283897
183 1 1  0.000000 77.804054 35.707092 66.744652
184 1 1  0.000000 79.002327 35.873276 67.782555
185 1 1  0.000000 78.259476 37.784695 67.289879
186 1 1  0.000000 78.732582 39.238007 67.779991
187 1 1  0.000000 77.722717 38.265121 68.341927
188 1 1  0.000000 77.138641 39.878513 67.827682
189 1 1  0.000000 77.638863 40.811428 68.908783
190 1 1  0.000000 77.304497 40.861515 70.209175
191 1 1  0.000000 76.117508 41.863071 71.496696
192 1 1  0.000000 76.617599 42.216022 72.777023
193 1 1  0.000000 77.332748 42.274197 74.079575
194 1 1  0.000000 77.330750 42.585720 75.320259
195 1 1  0.000000 78.424942 42.070683 76.069244
196 1 1  0.000000 78.902527 43.424175 75.985970
197 1 1  0.000000 79.627106 43.398727 77.216080
198 1 1  0.000000 80.906075 44.217003 75.909653
199 1 1  0.000000 80.684937 45.145805 77.268303
200 1 1  0.000000 80.210983 46.480785 77.743416
201 2 1  0.000000 85.744789 57.370350 54.677120
202 2 1  0.000000 85.189323 55.967567 53.997726
203 2 1  0.000000 83.464264 56.578075 54.803097
204 2 1  0.000000 82.336220 55.488712 55.408844
205 2 1  0.000000 81.836769 54.479534 54.755474
206 2 1  0.000000 80.560226 54.300732 56.367073
207 2 1  0.000000 78.859215 54.132370 56.027649
208 2 1  0.000000 79.214462 54.252060 57.760002
209 2 1  0.000000 78.698067 54.371643 56.270187
210 2 1  0.000000 77.487114 55.150204 56.890152
211 2 1  0.000000 76.755486 55.913654 57.726006
212 2 1  0.000000 77.464996 57.350769 58.125160
213 2 1  0.000000 76.433144 56.581013 59.106716
214 2 1  0.000000 77.316086 57.752632 60.218914
215 2 1  0.000000 78.288673 56.735218 60.407898
216 2 1  0.000000 77.741051 54.757702 60.917538
217 2 1  0.000000 78.693077 54.044086 61.939220
218 2 1  0.000000 79.497704 52.606930 62.253124
219 2 1  0.000000 79.154617 51.642899 63.427567
220 2 1  0.000000 80.845161 50.896362 63.748714
221 2 1  0.000000 82.185295 49.546589 63.280792
222 2 1  0.000000 82.577805 49.980312 61.527420
223 2 1  0.000000 82.152489 51.226795 60.457249
224 2 1  0.000000 83.373398 50.657269 59.761749
225 2 1  0.000000 83.586990 49.498989 58.952644
226 2 1  0.000000 82.275253 49.639484 57.426918
227 2 1  0.000000 81.459145 50.529480 56.274982
228 2 1  0.000000 83.193993 50.717079 56.502666
229 2 1  0.000000 84.477081 49.459595 55.935234
230 2 1  0.000000 84.957748 48.327660 54.653889
231 2 1  0.000000 85.445671 49.173321 52.624413
232 2 1  0.000000 84.466721 50.494617 53.185097
233 2 1  0.000000 85.835220 51.090267 53.505634
234 2 1  0.000000 86.185036 52.314590 53.357494
235 2 1  0.000000 85.516113 52.215290 54.904362
236 2 1  0.000000 86.541283 53.285542 55.642696
237 2 1  0.000000 88.452782 53.110222 56.049156
238 2 1  0.000000 87.804886 52.292576 57.574146
239 2 1  0.000000 89.695129 52.427467 58.034996
240 2 1  0.000000 88.940018 53.096310 58.968632
241 2 1  0.000000 88.211685 54.597000 59.880966
242 2 1  0.000000 88.337479 54.363552 62.207916
243 2 1  0.000000 87.494324 53.960503 63.655987
244 2 1  0.000000 86.135918 54.812607 63.842003
245 2 1  0.000000 85.705452 53.667576 63.651451
246 2 1  0.000000 83.908028 54.507603 65.137047
247 2 1  0.000000 83.388557 53.367439 66.568382
248 2 1  0.000000 82.333916 53.383656 67.427704
249 2 1  0.000000 81.629974 52.857224 66.431198
250 2 1  0.000000 80.019241 52.480473 66.950928
251 2 1  0.000000 79.525581 51.053658 67.295135
252 2 1  0.000000 77.866417 50.774822 67.137459
253 2 1  0.000000 76.816940 50.906387 68.116623
254 2 1  0.000000 75.436951 50.606174 67.890411
255 2 1  0.000000 74.678459 49.223724 68.700081
256 2 1  0.000000 73.717979 47.631058 67.759659
257 2 1  0.000000 73.643478 46.675114 68.924698
258 2 1  0.000000 72.346619 46.543682 69.524757
259 2 1  0.000000 72.795074 46.543148 71.246040
260 2 1  0.000000 71.096390 46.413258 71.452324
261 2 1  0.000000 69.270638 47.053524 71.887772
262 2 1  0.000000 68.583534 48.269039 71.461670
263 2 1  0.000000 68.340210 47.034492 72.652512
264 2 1  0.000000 68.116127 48.245441 73.818161
265 2 1  0.000000 66.665276 49.099022 74.338951
266 2 1  0.000000 67.323318 48.478374 75.853386
267 2 1  0.000000 67.563873 47.313145 77.193176
268 2 1  0.000000 66.868370 46.235256 76.258385
269 2 1  0.000000 66.024933 45.661537 77.978737
270 2 1  0.000000 65.443459 47.013916 78.081413
271 2 1  0.000000 63.862968 47.246101 78.344864
272 2 1  0.000000 62.278553 47.261822 78.860291
273 2 1  0.000000 62.335552 48.137405 80.080177
274 2 1  0.000000 63.061138 47.352028 81.831322
275 2 1  0.000000 62.553463 49.004543 82.635689
276 2 1  0.000000 63.804012 48.174168 82.669617
277 2 1  0.000000 64.643585 50.702530 82.569405
278 2 1  0.000000 65.951019 51.235535 83.334305
279 2 1  0.000000 66.999832 52.364445 83.280510
280 2 1  0.000000 68.213890 52.703125 83.100868
281 2 1  0.000000 69.259972 52.427944 81.455902
282 2 1  0.000000 70.782188 52.292816 80.328415
283 2 1  0.000000 70.916428 51.610222 81.901047
284 2 1  0.000000 71.794167 50.770184 81.804283
285 2 1  0.000000 72.472656 52.661911 81.707893
286 2 1  0.000000 73.196945 52.350285 83.387718
287 2 1  0.000000 73.372856 51.776115 84.720642
288 2 1  0.000000 73.773026 50.770702 85.478531
289 2 1  0.000000 72.465202 51.995152 85.203018
290 2 1  0.000000 72.149445 50.401615 86.237663
291 2 1  0.000000 71.463310 50.863785 87.123474
292 2 1  0.000000 70.388710 51.922195 87.462341
293 2 1  0.000000 71.812614 53.082626 88.014282
294 2 1  0.000000 71.630272 52.495434 89.559341
295 2 1  0.000000 73.190994 52.518368 90.676781
296 2 1  0.000000 74.042862 52.800190 89.664894
297 2 1  0.000000 74.954102 51.829308 90.824715
298 2 1  0.000000 75.298065 51.647175 89.553177
299 2 1  0.000000 76.975670 51.176640 89.034462
300 2 1  0.000000 77.979897 52.827309 89.018379
301 3 1  0.000000 100.479195 57.389679 102.998421
302 3 1  0.000000 100.738289 55.919369 104.437057
303 3 1  0.000000 100.286636 57.739277 103.883110
304 3 1  0.000000 99.145370 58.532948 105.222137
305 3 1  0.000000 98.505943 59.948341 105.090057
306 3 1  0.000000 97.763580 61.382679 104.839874
307 3 1  0.000000 97.062332 62.531483 105.044670
308 3 1  0.000000 96.499481 63.913887 104.361076
309 3 1  0.000000 95.391327 64.634537 103.345261
310 3 1  0.000000 94.483337 63.808208 102.073105
311 3 1  0.000000 93.154922 62.621689 101.649704
312 3 1  0.000000 91.204727 62.266853 101.299576
313 3 1  0.000000 90.347443 61.544544 101.225967
314 3 1  0.000000 89.476036 62.708782 100.553482
315 3 1  0.000000 87.200935 63.040451 100.894936
316 3 1  0.000000 85.443054 63.525772 100.875481
317 3 1  0.000000 84.646591 64.778831 102.590126
318 3 1  0.000000 83.220177 66.001305 102.257156
319 3 1  0.000000 83.124268 66.810928 101.080177
320 3 1  0.000000 84.412567 67.061516 100.260162
321 3 1  0.000000 84.281395 66.770012 98.001328
322 3 1  0.000000 83.045868 67.453682 98.509155
323 3 1  0.000000 81.330582 68.157661 98.867432
324 3 1  0.000000 80.412994 68.617569 97.755371
325 3 1  0.000000 79.185905 67.407265 97.776596
326 3 1  0.000000 79.413025 67.110710 96.589729
327 3 1  0.000000 79.695686 65.102257 95.800522
328 3 1  0.000000 78.734444 64.289276 94.522606
329 3 1  0.000000 79.356186 65.761566 93.312675
330 3 1  0.000000 79.075920 65.531517 92.297424
331 3 1  0.000000 80.274811 64.763268 91.993279
332 3 1  0.000000 82.193237 64.197044 91.753830
333 3 1  0.000000 81.989822 62.649151 91.098831
334 3 1  0.000000 83.212036 60.976627 91.592651
335 3 1  0.000000 82.523697 61.564678 93.172073
336 3 1  0.000000 81.179893 60.541313 93.166763
337 3 1  0.000000 83.015556 60.211353 92.962555
338 3 1  0.000000 83.854431 60.044716 95.012199
339 3 1  0.000000 85.329971 59.843964 96.146828
340 3 1  0.000000 84.767685 59.449448 97.490906
341 3 1  0.000000 85.237038 58.529980 99.544838
342 3 1  0.000000 86.414093 57.231247 100.239220
343 3 1  0.000000 86.675987 56.296391 101.773643
344 3 1  0.000000 86.857559 54.844810 102.238052
345 3 1  0.000000 87.995224 53.760986 102.694603
346 3 1  0.000000 88.596184 53.917088 100.831215
347 3 1  0.000000 89.529007 55.285095 100.966888
348 3 1  0.000000 90.371117 54.453236 101.543739
349 3 1  0.000000 90.581749 52.889580 100.785286
350 3 1  0.000000 91.654839 51.674721 100.097153
351 3 1  0.000000 93.039284 52.218742 99.767189
352 3 1  0.000000 94.057808 52.085739 98.563820
353 3 1  0.000000 94.466011 52.032307 97.265778
354 3 1  0.000000 92.834839 52.780769 97.158157
355 3 1  0.000000 93.585732 54.354706 96.414337
356 3 1  0.000000 93.440964 55.443638 96.543800
357 3 1  0.000000 92.031487 54.941635 95.414841
358 3 1  0.000000 91.062515 55.872314 94.734367
359 3 1  0.000000 90.308678 56.840420 94.451881
360 3 1  0.000000 91.140312 56.714218 93.269714
361 3 1  0.000000 91.405739 58.081627 92.108315
362 3 1  0.000000 90.591057 58.207897 90.580826
363 3 1  0.000000 90.970314 58.074051 88.888420
364 3 1  0.000000 92.111130 59.438000 88.252296
365 3 1  0.000000 91.610680 59.619209 86.191643
366 3 1  0.000000 89.956467 59.765903 84.593407
367 3 1  0.000000 89.093239 59.923134 83.486862
368 3 1  0.000000 88.410889 59.261475 82.464684
369 3 1  0.000000 86.894051 59.011635 81.673714
370 3 1  0.000000 85.753128 59.837978 81.691795
371 3 1  0.000000 84.778511 59.289299 81.987251
372 3 1  0.000000 84.397873 58.796009 83.295898
373 3 1  0.000000 83.868820 60.269951 83.507874
374 3 1  0.000000 82.197868 60.007973 82.811249
375 3 1  0.000000 82.594276 61.274712 84.230209
376 3 1  0.000000 81.442719 60.446823 83.508881
377 3 1  0.000000 80.660561 61.785236 83.223511
378 3 1  0.000000 81.022377 63.479038 84.261032
379 3 1  0.000000 81.051056 65.168236 84.310677
380 3 1  0.000000 80.134483 66.597786 84.152588
381 3 1  0.000000 79.938751 68.078606 84.434868
382 3 1  0.000000 81.648407 67.717735 85.738930
383 3 1  0.000000 81.101669 67.955360 86.949005
384 3 1  0.000000 81.955772 68.495651 86.104645
385 3 1  0.000000 83.729919 69.217400 87.213509
386 3 1  0.000000 85.275795 69.652435 87.784302
387 3 1  0.000000 85.330986 68.176292 88.374504
388 3 1  0.000000 85.281685 69.488884 89.798721
389 3 1  0.000000 86.376724 69.819519 90.747009
390 3 1  0.000000 86.810944 71.147499 90.912849
391 3 1  0.000000 87.960587 70.760262 91.662476
392 3 1  0.000000 87.957878 72.048859 91.636742
393 3 1  0.000000 90.016373 72.073509 92.702736
394 3 1  0.000000 90.942841 71.110680 91.436256
395 3 1  0.000000 91.895256 71.488029 90.581154
396 3 1  0.000000 93.119232 69.664070 89.273979
397 3 1  0.000000 92.758667 69.383659 88.080070
398 3 1  0.000000 92.247597 69.608704 86.815521
399 3 1  0.000000 90.957787 68.667892 88.369827
400 3 1  0.000000 91.530861 66.928612 87.482361
401 4 1  0.000000 86.756355 71.319344 65.000778
402 4 1  0.000000 85.160851 71.413788 64.665283
403 4 1  0.000000 84.805145 71.173218 66.471153
404 4 1  0.000000 83.993515 72.289474 67.258919
405 4 1  0.000000 82.106827 72.293800 67.030479
406 4 1  0.000000 81.229286 71.942352 65.987602
407 4 1  0.000000 81.407776 73.090912 66.937752
408 4 1  0.000000 80.006157 72.791542 67.657967
409 4 1  0.000000 78.725174 72.475685 67.666756
410 4 1  0.000000 77.476189 71.639992 68.002556
411 4 1  0.000000 78.296837 70.228882 68.003685
412 4 1  0.000000 76.476791 70.700722 68.891289
413 4 1  0.000000 76.364746 69.344467 69.294640
414 4 1  0.000000 74.614967 68.615303 68.963341
415 4 1  0.000000 74.111832 67.354515 69.908768
416 4 1  0.000000 75.247032 67.035835 70.280960
417 4 1  0.000000 75.655746 65.917259 71.484543
418 4 1  0.000000 76.507736 65.542694 70.428444
419 4 1  0.000000 77.635117 64.849907 71.311417
420 4 1  0.000000 76.299088 64.720711 73.056763
421 4 1  0.000000 76.887978 63.196621 73.570526
422 4 1  0.000000 78.506248 62.776749 73.349228
423 4 1  0.000000 77.692940 61.612667 72.558151
424 4 1  0.000000 78.464851 60.632572 71.835739
425 4 1  0.000000 80.048843 60.003769 71.322075
426 4 1  0.000000 81.224007 59.178455 72.478104
427 4 1  0.000000 82.658478 58.304245 73.061409
428 4 1  0.000000 83.339203 57.679955 73.894775
429 4 1  0.000000 82.933022 56.171345 73.762672
430 4 1  0.000000 84.804886 56.551079 73.952316
431 4 1  0.000000 86.628403 57.038090 73.456749
432 4 1  0.000000 86.701439 59.401096 73.778519
433 4 1  0.000000 88.073914 59.245152 72.378624
434 4 1  0.000000 87.567314 58.793865 70.787201
435 4 1  0.000000 87.888992 60.473450 71.020554
436 4 1  0.000000 87.071831 62.129326 70.982346
437 4 1  0.000000 86.148605 63.049847 71.066673
438 4 1  0.000000 84.938385 62.424984 70.940056
439 4 1  0.000000 83.269272 62.972664 70.305359
440 4 1  0.000000 82.310661 63.708149 71.314972
441 4 1  0.000000 82.088333 65.097656 70.825638
442 4 1  0.000000 81.422958 66.390717 70.683022
443 4 1  0.000000 82.622986 67.139610 70.523399
444 4 1  0.000000 83.858803 66.977661 69.752731
445 4 1  0.000000 83.627457 67.169418 68.172752
446 4 1  0.000000 85.128754 66.276764 67.240005
447 4 1  0.000000 83.676689 65.762550 66.420395
448 4 1  0.000000 82.685127 66.607590 65.660957
449 4 1  0.000000 80.789330 66.990578 65.530296
450 4 1  0.000000 80.706985 67.226364 63.908768
451 4 1  0.000000 80.183327 68.177711 62.773411
452 4 1  0.000000 78.624557 67.975128 61.831005
453 4 1  0.000000 77.443054 66.203491 61.998077
454 4 1  0.000000 76.805115 67.228951 62.531544
455 4 1  0.000000 75.564087 67.540581 63.486149
456 4 1  0.000000 74.611374 66.618256 64.853531
457 4 1  0.000000 73.608269 67.720245 65.668060
458 4 1  0.000000 72.336693 68.873131 64.887138
459 4 1  0.000000 71.706367 68.118759 64.204453
460 4 1  0.000000 70.914536 69.405289 64.793961
461 4 1  0.000000 69.118820 69.064102 65.352669
462 4 1  0.000000 68.699928 67.818787 64.740524
463 4 1  0.000000 67.108009 67.895424 63.541271
464 4 1  0.000000 65.923225 67.040039 62.978687
465 4 1  0.000000 64.947395 66.167099 61.734886
466 4 1  0.000000 64.914513 67.163300 61.967789
467 4 1  0.000000 63.992149 67.224319 60.509808
468 4 1  0.000000 62.563740 66.622437 60.685707
469 4 1  0.000000 61.605133 67.301895 59.110367
470 4 1  0.000000 61.410473 65.360237 58.874725
471 4 1  0.000000 61.942272 63.768074 58.294945
472 4 1  0.000000 62.692032 62.456383 58.835239
473 4 1  0.000000 62.236629 62.681488 57.256561
474 4 1  0.000000 63.356144 63.822487 56.605038
475 4 1  0.000000 64.601723 64.117790 55.448284
476 4 1  0.000000 65.886276 63.681000 54.278976
477 4 1  0.000000 66.733070 64.165070 55.083923
478 4 1  0.000000 68.196701 65.184601 54.763859
479 4 1  0.000000 67.592316 66.251213 53.138107
480 4 1  0.000000 67.810753 67.753548 54.274704
481 4 1  0.000000 68.453293 68.773643 55.882912
482 4 1  0.000000 68.337189 69.981567 56.829697
483 4 1  0.000000 67.051270 68.776932 57.778137
484 4 1  0.000000 65.632675 68.607529 56.450451
485 4 1  0.000000 63.897385 69.455078 56.618130
486 4 1  0.000000 63.616989 70.490051 55.834457
487 4 1  0.000000 61.549179 70.236389 54.837364
488 4 1  0.000000 60.715034 71.325722 54.893398
489 4 1  0.000000 61.737698 72.257896 55.482822
490 4 1  0.000000 60.691315 73.224922 55.436794
491 4 1  0.000000 60.218773 73.905708 56.720448
492 4 1  0.000000 58.894646 73.619743 56.938297
493 4 1  0.000000 58.668385 75.192245 57.097858
494 4 1  0.000000 58.872036 76.490570 56.313423
495 4 1  0.000000 59.686771 77.093819 55.627129
496 4 1  0.000000 60.166409 78.683525 55.439304
497 4 1  0.000000 61.411221 77.520569 55.509224
498 4 1  0.000000 62.091232 76.150810 55.889439
499 4 1  0.000000 63.511009 75.289085 55.462540
500 4 1  0.000000 64.425644 75.435043 56.672012
501 5 1  0.000000 74.990128 74.647751 67.232300
502 5 1  0.000000 73.741951 75.951820 67.149483
503 5 1  0.000000 74.927750 75.075508 66.666428
504 5 1  0.000000 74.344635 76.706505 66.553848
505 5 1  0.000000 75.987518 77.403328 65.679230
506 5 1  0.000000 76.762589 77.669502 64.638184
507 5 1  0.000000 76.185059 77.927940 63.015945
508 5 1  0.000000 75.717690 79.162445 62.110062
509 5 1  0.000000 76.264275 80.119148 62.195793
510 5 1  0.000000 77.053879 81.627197 63.166946
511 5 1  0.000000 76.858376 82.214539 64.850235
512 5 1  0.000000 75.668503 81.755104 65.625572
513 5 1  0.000000 76.160110 83.364632 64.408012
514 5 1  0.000000 75.171150 83.942230 65.734329
515 5 1  0.000000 74.322243 83.410164 67.228897
516 5 1  0.000000 75.453514 83.922493 67.768669
517 5 1  0.000000 76.689613 84.324989 68.800461
518 5 1  0.000000 77.815285 83.119942 68.627052
519 5 1  0.000000 78.012543 81.327873 69.264214
520 5 1  0.000000 78.507118 83.035210 68.751663
521 5 1  0.000000 80.302666 83.400467 69.059830
522 5 1  0.000000 81.328827 83.916908 69.890770
523 5 1  0.000000 82.497719 82.903275 70.737442
524 5 1  0.000000 81.777679 82.204147 72.321419
525 5 1  0.000000 81.337776 80.686714 72.647774
526 5 1  0.000000 83.217140 79.948433 72.802155
527 5 1  0.000000 84.441101 79.258461 73.638298
528 5 1  0.000000 85.773575 78.766876 73.158859
529 5 1  0.000000 86.657684 80.066360 72.141273
530 5 1  0.000000 86.481117 81.145058 71.161461
531 5 1  0.000000 88.183693 81.707344 70.956429
532 5 1  0.000000 88.713676 81.421875 70.082970
533 5 1  0.000000 88.792519 82.491455 71.401520
534 5 1  0.000000 90.566475 82.451080 71.401855
535 5 1  0.000000 91.133766 82.457626 72.185440
536 5 1  0.000000 90.608955 83.646637 73.299553
537 5 1  0.000000 89.631714 83.397194 74.549530
538 5 1  0.000000 88.455040 83.371429 75.472191
539 5 1  0.000000 86.898911 83.388992 76.354523
540 5 1  0.000000 85.628830 83.649216 75.703918
541 5 1  0.000000 84.735275 82.906479 74.497002
542 5 1  0.000000 84.499336 84.003998 76.223038
543 5 1  0.000000 83.470093 82.909485 76.540878
544 5 1  0.000000 82.087997 82.704659 77.210732
545 5 1  0.000000 81.540359 81.470650 77.755867
546 5 1  0.000000 80.419914 81.353241 76.441299
547 5 1  0.000000 78.644630 81.245598 77.006981
548 5 1  0.000000 77.969398 81.694458 75.547707
549 5 1  0.000000 76.745667 80.968987 76.556709
550 5 1  0.000000 76.105431 79.989540 77.095848
551 5 1  0.000000 75.011848 79.622154 76.496292
552 5 1  0.000000 75.141281 80.291374 78.509491
553 5 1  0.000000 74.237663 80.541351 80.449440
554 5 1  0.000000 72.874428 80.617027 80.783913
555 5 1  0.000000 73.265953 82.120949 80.552551
556 5 1  0.000000 73.457588 81.971817 82.567787
557 5 1  0.000000 73.911621 81.645844 83.745659
558 5 1  0.000000 73.034927 82.345177 85.125908
559 5 1  0.000000 74.634552 83.146835 85.439636
560 5 1  0.000000 74.420670 83.670677 87.133904
561 5 1  0.000000 74.315933 84.807793 88.608643
562 5 1  0.000000 73.846848 85.426193 87.107353
563 5 1  0.000000 72.432030 86.676170 87.594803
564 5 1  0.000000 72.790512 86.750839 86.095795
565 5 1  0.000000 72.559639 87.536034 87.251587
566 5 1  0.000000 72.376419 88.537430 86.823982
567 5 1  0.000000 72.066986 89.807098 85.882996
568 5 1  0.000000 71.018669 90.750801 86.866348
569 5 1  0.000000 69.880157 91.349037 86.399498
570 5 1  0.000000 68.234840 89.596077 86.481544
571 5 1  0.000000 67.905640 88.489136 87.052666
572 5 1  0.000000 68.232864 88.201607 88.293045
573 5 1  0.000000 67.780594 87.461464 89.364334
574 5 1  0.000000 67.641891 89.131790 89.793350
575 5 1  0.000000 66.465508 89.896072 90.515480
576 5 1  0.000000 64.477081 90.218842 89.880730
577 5 1  0.000000 64.513222 89.042488 89.921188
578 5 1  0.000000 64.090591 90.496696 89.424019
579 5 1  0.000000 62.549583 90.513710 90.692451
580 5 1  0.000000 61.706963 91.852432 91.182976
581 5 1  0.000000 61.932205 93.266045 91.396240
582 5 1  0.000000 61.540485 94.835770 91.869972
583 5 1  0.000000 60.721268 95.428772 92.434860
584 5 1  0.000000 61.358593 95.857216 93.768784
585 5 1  0.000000 62.228882 95.370033 95.100113
586 5 1  0.000000 63.847988 95.956551 95.142593
587 5 1  0.000000 63.891033 95.471672 93.960022
588 5 1  0.000000 65.073624 96.204124 94.778534
589 5 1  0.000000 65.514450 95.006653 95.014076
590 5 1  0.000000 67.290901 94.553368 95.608315
591 5 1  0.000000 68.678894 95.191437 95.513977
592 5 1  0.000000 69.765465 95.241341 95.102531
593 5 1  0.000000 69.220253 93.931396 96.357430
594 5 1  0.000000 69.345291 92.239059 95.659981
595 5 1  0.000000 70.357193 92.265854 96.403351
596 5 1  0.000000 71.379082 92.973625 95.610756
597 5 1  0.000000 73.248444 93.340515 94.453079
598 5 1  0.000000 72.850189 92.264290 94.537231
599 5 1  0.000000 73.037071 93.097687 93.818298
600 5 1  0.000000 72.979057 93.932556 92.378693
601 6 1  0.000000 87.977051 110.857132 59.366219
602 6 1  0.000000 87.373383 110.844696 57.645420
603 6 1  0.000000 86.884911 109.400696 58.945496
604 6 1  0.000000 86.040092 108.953812 60.667984
605 6 1  0.000000 85.836899 108.126190 62.198174
606 6 1  0.000000 85.127853 106.369354 61.582996
607 6 1  0.000000 85.174919 104.868416 62.263165
608 6 1  0.000000 84.456284 103.458900 62.885731
609 6 1  0.000000 83.299034 103.207405 64.306984
610 6 1  0.000000 81.937592 103.633492 65.463547
611 6 1  0.000000 81.582932 102.270416 66.036163
612 6 1  0.000000 81.698059 100.701942 67.357140
613 6 1  0.000000 81.396454 100.275757 66.659058
614 6 1  0.000000 80.669472 99.082863 67.401077
615 6 1  0.000000 79.057724 98.408806 66.730865
616 6 1  0.000000 79.054001 97.058868 67.499260
617 6 1  0.000000 79.985962 96.658081 69.295311