Created with TaichiMD

1000 atoms
990 bonds
  0 angles
  0 dihedrals
  0 impropers

1 atom types
1 bond types
0 angle types
0 dihedral types
0 improper types

-80.00000  80.00000 xlo xhi
-80.00000  80.00000 ylo yhi
-80.00000  80.00000 zlo zhi

Masses

1 10.0000

Atoms

  1 0 1  0.000000 22.432865 15.753403 81.395592
  2 0 1  0.000000 21.529963 17.313913 81.326485
  3 0 1  0.000000 22.372368 17.476759 83.137558
  4 0 1  0.000000 21.895657 16.346397 83.949684
  5 0 1  0.000000 23.872171 17.779850 83.539879
  6 0 1  0.000000 24.594698 18.419928 82.936287
  7 0 1  0.000000 25.457037 18.737967 81.535538
  8 0 1  0.000000 25.536633 18.767702 79.635811
  9 0 1  0.000000 26.163363 18.312250 78.280869
 10 0 1  0.000000 27.694973 17.095110 77.860695
 11 0 1  0.000000 28.440163 18.064896 78.935188
 12 0 1  0.000000 29.449944 18.074093 80.688576
 13 0 1  0.000000 30.380272 19.392696 80.132423
 14 0 1  0.000000 31.548651 20.406977 79.263260
 15 0 1  0.000000 32.323105 18.866568 79.648300
 16 0 1  0.000000 33.265182 19.545311 79.176468
 17 0 1  0.000000 33.201759 19.526865 77.434410
 18 0 1  0.000000 33.597004 21.248688 76.807343
 19 0 1  0.000000 33.590961 22.568241 77.838631
 20 0 1  0.000000 33.962391 23.739140 77.531700
 21 0 1  0.000000 35.309109 24.317856 78.392799
 22 0 1  0.000000 36.756306 23.494427 79.511551
 23 0 1  0.000000 38.357609 23.926762 79.678108
 24 0 1  0.000000 39.749008 23.715158 80.822845
 25 0 1  0.000000 39.940914 21.958467 80.692139
 26 0 1  0.000000 42.076000 23.025433 81.049950
 27 0 1  0.000000 43.213558 22.266308 80.970428
 28 0 1  0.000000 44.699791 21.722397 81.072739
 29 0 1  0.000000 45.761810 21.522148 81.095818
 30 0 1  0.000000 47.726536 21.473980 81.242485
 31 0 1  0.000000 49.342545 21.098251 81.142578
 32 0 1  0.000000 51.145096 19.616833 81.172852
 33 0 1  0.000000 52.498821 20.933992 79.764229
 34 0 1  0.000000 55.045818 20.683048 79.731735
 35 0 1  0.000000 56.849831 19.714867 80.921364
 36 0 1  0.000000 59.066872 20.035835 80.863396
 37 0 1  0.000000 60.255371 19.075762 81.687523
 38 0 1  0.000000 61.540497 17.837420 81.280373
 39 0 1  0.000000 63.331669 18.066990 80.735512
 40 0 1  0.000000 63.594120 16.510489 81.574646
 41 0 1  0.000000 65.285782 17.040497 81.137901
 42 0 1  0.000000 66.430046 15.706299 80.726578
 43 0 1  0.000000 68.083115 15.721764 81.663368
 44 0 1  0.000000 68.205070 15.489264 80.290710
 45 0 1  0.000000 68.977196 14.530438 80.939636
 46 0 1  0.000000 70.910378 13.875235 81.356285
 47 0 1  0.000000 72.613243 12.620332 80.993980
 48 0 1  0.000000 73.274773 14.428865 80.078362
 49 0 1  0.000000 75.266426 14.447227 79.231911
 50 0 1  0.000000 76.958687 14.283125 78.996864
 51 0 1  0.000000 78.194435 13.457752 78.648186
 52 0 1  0.000000 80.048393 13.900818 80.014885
 53 0 1  0.000000 81.240929 12.549873 79.663559
 54 0 1  0.000000 83.008911 12.784077 79.413971
 55 0 1  0.000000 84.626823 13.808960 79.104279
 56 0 1  0.000000 86.081566 13.849758 80.161972
 57 0 1  0.000000 87.251801 14.063949 81.340370
 58 0 1  0.000000 88.445320 14.398502 81.782532
 59 0 1  0.000000 89.676590 14.070546 81.336067
 60 0 1  0.000000 91.394646 15.365868 81.817696
 61 0 1  0.000000 92.407829 16.472231 81.058968
 62 0 1  0.000000 93.658241 16.629374 80.644066
 63 0 1  0.000000 95.463013 17.075699 80.697563
 64 0 1  0.000000 97.180168 17.288839 81.698586
 65 0 1  0.000000 98.302414 18.533834 81.563095
 66 0 1  0.000000 99.458626 18.039124 80.543343
 67 0 1  0.000000 101.171036 17.857368 79.386131
 68 0 1  0.000000 102.451279 19.155666 80.119324
 69 0 1  0.000000 104.104301 19.211782 79.473358
 70 0 1  0.000000 105.024315 19.204865 78.411507
 71 0 1  0.000000 106.050827 20.409178 77.605545
 72 0 1  0.000000 107.397682 21.356241 77.183548
 73 0 1  0.000000 108.741539 22.409382 77.205338
 74 0 1  0.000000 110.371773 22.862309 77.860558
 75 0 1  0.000000 111.698830 22.394108 78.533211
 76 0 1  0.000000 113.148041 23.169596 78.577888
 77 0 1  0.000000 114.296272 22.145575 78.933754
 78 0 1  0.000000 115.922050 22.969990 79.263542
 79 0 1  0.000000 116.865646 24.072384 79.579666
 80 0 1  0.000000 117.583427 23.270815 80.514702
 81 0 1  0.000000 119.124306 23.710949 79.345139
 82 0 1  0.000000 120.385399 24.941214 78.908089
 83 0 1  0.000000 121.557236 24.735603 76.998749
 84 0 1  0.000000 120.557579 25.980585 77.247185
 85 0 1  0.000000 120.319954 27.299583 76.463120
 86 0 1  0.000000 120.522369 28.766867 76.253471
 87 0 1  0.000000 121.330917 28.880474 74.854118
 88 0 1  0.000000 122.956741 29.146378 74.581146
 89 0 1  0.000000 124.095177 28.431448 75.658226
 90 0 1  0.000000 125.702927 28.735937 75.213226
 91 0 1  0.000000 127.374458 28.552795 75.750961
 92 0 1  0.000000 127.201172 30.030458 74.823837
 93 0 1  0.000000 128.665771 29.963037 74.366714
 94 0 1  0.000000 129.993027 30.461620 75.276024
 95 0 1  0.000000 131.328506 30.024136 76.401245
 96 0 1  0.000000 131.531433 28.638622 75.206230
 97 0 1  0.000000 131.880737 27.239229 75.390350
 98 0 1  0.000000 133.328125 27.154877 74.480400
 99 0 1  0.000000 133.826721 25.770586 74.648750
100 0 1  0.000000 134.958527 26.099161 73.068672
101 1 1  0.000000 23.025949 38.984589 76.270592
102 1 1  0.000000 24.279976 39.330563 75.379074
103 1 1  0.000000 25.349730 38.326908 74.346886
104 1 1  0.000000 25.446339 37.590336 75.545921
105 1 1  0.000000 26.358000 36.556137 74.713310
106 1 1  0.000000 26.034292 36.647198 76.415970
107 1 1  0.000000 25.169741 35.147915 75.936134
108 1 1  0.000000 23.849470 34.604561 75.131805
109 1 1  0.000000 25.142727 34.014923 75.346832
110 1 1  0.000000 26.505260 33.404514 75.186501
111 1 1  0.000000 26.885540 31.829578 74.514503
112 1 1  0.000000 27.956863 31.079876 75.902176
113 1 1  0.000000 28.695013 30.082066 76.541710
114 1 1  0.000000 29.654379 30.836460 77.165375
115 1 1  0.000000 31.037010 29.662844 77.306267
116 1 1  0.000000 31.313093 29.623707 78.411377
117 1 1  0.000000 33.273453 28.914316 77.671608
118 1 1  0.000000 34.688503 29.361423 76.435783
119 1 1  0.000000 34.295238 28.845303 78.235168
120 1 1  0.000000 35.576477 28.972015 77.591919
121 1 1  0.000000 37.184383 27.964655 76.820137
122 1 1  0.000000 38.592533 28.756954 76.400436
123 1 1  0.000000 39.978443 29.860601 76.000099
124 1 1  0.000000 41.096096 30.187056 75.929131
125 1 1  0.000000 42.628479 29.435768 76.293045
126 1 1  0.000000 44.176174 29.644405 76.537933
127 1 1  0.000000 45.890518 30.296124 76.061119
128 1 1  0.000000 47.896454 29.411762 76.012527
129 1 1  0.000000 49.130959 29.902655 75.594940
130 1 1  0.000000 50.626457 29.321398 75.763107
131 1 1  0.000000 52.048191 30.000195 74.858795
132 1 1  0.000000 53.258041 30.521833 74.000275
133 1 1  0.000000 55.181046 30.645710 74.521324
134 1 1  0.000000 56.258343 30.298344 74.183128
135 1 1  0.000000 58.377338 29.686028 74.331940
136 1 1  0.000000 59.302143 30.997942 74.905708
137 1 1  0.000000 59.336422 31.495674 76.669029
138 1 1  0.000000 60.567532 32.390438 76.325455
139 1 1  0.000000 61.346554 31.098898 77.959267
140 1 1  0.000000 62.529877 31.953497 78.600937
141 1 1  0.000000 63.940868 33.068653 77.861877
142 1 1  0.000000 65.672592 32.902485 77.665779
143 1 1  0.000000 67.745895 32.507111 77.465988
144 1 1  0.000000 69.154900 32.557636 78.719971
145 1 1  0.000000 70.482895 32.755550 78.203613
146 1 1  0.000000 72.289864 33.663879 79.072868
147 1 1  0.000000 73.891403 33.631466 79.681747
148 1 1  0.000000 76.269981 32.974159 80.176109
149 1 1  0.000000 78.550972 32.120323 80.447388
150 1 1  0.000000 80.442825 32.203739 80.405472
151 1 1  0.000000 81.526100 31.011971 81.319107
152 1 1  0.000000 82.996902 31.869799 81.015091
153 1 1  0.000000 84.144310 31.855093 81.147125
154 1 1  0.000000 86.448616 31.990314 81.734390
155 1 1  0.000000 87.612350 31.653629 81.212128
156 1 1  0.000000 89.497551 32.303696 81.777054
157 1 1  0.000000 90.653839 31.940060 82.828659
158 1 1  0.000000 92.399643 32.994297 83.203964
159 1 1  0.000000 93.222351 31.529913 84.080719
160 1 1  0.000000 94.122025 32.176880 85.089058
161 1 1  0.000000 96.139442 32.696815 84.940033
162 1 1  0.000000 97.743835 32.170818 85.516998
163 1 1  0.000000 99.401276 32.396736 86.697723
164 1 1  0.000000 100.059334 33.458858 87.474907
165 1 1  0.000000 101.359154 33.674320 86.035309
166 1 1  0.000000 103.544434 32.855957 85.748932
167 1 1  0.000000 105.104462 32.869087 86.064369
168 1 1  0.000000 106.404106 32.357922 86.617599
169 1 1  0.000000 108.166039 32.475712 85.870361
170 1 1  0.000000 109.969429 31.814423 86.715904
171 1 1  0.000000 111.328041 31.182055 86.595963
172 1 1  0.000000 112.522713 31.090570 85.771065
173 1 1  0.000000 114.165527 30.542152 85.624130
174 1 1  0.000000 115.932228 30.537270 84.674889
175 1 1  0.000000 117.348915 29.769663 84.804596
176 1 1  0.000000 119.131218 31.083052 85.199112
177 1 1  0.000000 120.805077 30.746807 84.383385
178 1 1  0.000000 122.207169 29.958441 84.173637
179 1 1  0.000000 123.779251 29.673279 83.375229
180 1 1  0.000000 124.224937 29.216389 84.758339
181 1 1  0.000000 125.558723 29.395241 84.615196
182 1 1  0.000000 126.965256 30.314342 84.027916
183 1 1  0.000000 128.747314 30.088799 84.213081
184 1 1  0.000000 129.459076 28.337605 83.410721
185 1 1  0.000000 130.662460 27.918833 84.227898
186 1 1  0.000000 130.379150 27.105700 82.945343
187 1 1  0.000000 131.101761 27.498423 84.023041
188 1 1  0.000000 132.600769 27.118214 84.079216
189 1 1  0.000000 131.741135 25.356802 84.938408
190 1 1  0.000000 132.642303 24.486748 84.262993
191 1 1  0.000000 133.328613 24.439930 86.007164
192 1 1  0.000000 134.806061 25.361443 86.144150
193 1 1  0.000000 135.639587 26.372345 87.115410
194 1 1  0.000000 134.030396 25.878511 88.171204
195 1 1  0.000000 134.704315 26.881037 88.261505
196 1 1  0.000000 135.941223 28.543179 88.829308
197 1 1  0.000000 136.917755 28.818047 90.100777
198 1 1  0.000000 138.254837 29.528389 89.915115
199 1 1  0.000000 139.654419 28.877502 90.078026
200 1 1  0.000000 139.350891 30.377352 90.333580
201 2 1  0.000000 19.705276 46.778538 73.738892
202 2 1  0.000000 18.996422 47.683266 74.561356
203 2 1  0.000000 18.977495 48.958065 74.957985
204 2 1  0.000000 19.231369 48.914963 76.901604
205 2 1  0.000000 19.750547 50.059082 76.158394
206 2 1  0.000000 18.829817 50.249802 77.363350
207 2 1  0.000000 20.166012 51.108616 78.533379
208 2 1  0.000000 21.186966 51.870071 79.023056
209 2 1  0.000000 22.623768 51.785088 79.610680
210 2 1  0.000000 24.348730 51.211071 78.710190
211 2 1  0.000000 25.329880 49.861458 79.389626
212 2 1  0.000000 26.217213 49.305752 79.956123
213 2 1  0.000000 26.994604 48.262432 80.872749
214 2 1  0.000000 27.362375 48.522457 79.798416
215 2 1  0.000000 28.812887 49.443390 79.348122
216 2 1  0.000000 30.231432 48.649292 79.182327
217 2 1  0.000000 31.157526 49.798458 80.476448
218 2 1  0.000000 32.255894 49.424641 80.877739
219 2 1  0.000000 32.103836 48.008236 79.822197
220 2 1  0.000000 33.358665 47.055031 78.582863
221 2 1  0.000000 34.960697 47.174690 78.129036
222 2 1  0.000000 35.682182 48.428219 79.265358
223 2 1  0.000000 36.978180 48.023102 78.073921
224 2 1  0.000000 38.487690 47.210579 79.180565
225 2 1  0.000000 40.444843 46.889473 79.445999
226 2 1  0.000000 41.856724 47.915607 79.547516
227 2 1  0.000000 43.308155 47.427711 79.451668
228 2 1  0.000000 44.136658 46.444248 78.210266
229 2 1  0.000000 45.764877 46.391384 78.085831
230 2 1  0.000000 47.426544 45.361790 78.024918
231 2 1  0.000000 49.344986 46.361282 79.039963
232 2 1  0.000000 51.260826 45.692688 78.541214
233 2 1  0.000000 52.956947 46.380863 78.109093
234 2 1  0.000000 54.576099 46.257954 77.801483
235 2 1  0.000000 56.226162 45.239178 78.103638
236 2 1  0.000000 57.657753 45.087898 78.865677
237 2 1  0.000000 58.924217 45.014519 79.905693
238 2 1  0.000000 60.286785 45.474300 81.224335
239 2 1  0.000000 61.555027 45.362225 80.786049
240 2 1  0.000000 63.239403 44.900776 82.079872
241 2 1  0.000000 64.772453 45.031796 81.379417
242 2 1  0.000000 66.477730 45.541283 81.042480
243 2 1  0.000000 67.721115 45.269966 79.871559
244 2 1  0.000000 69.939903 45.131786 79.252602
245 2 1  0.000000 71.676414 44.165424 79.726570
246 2 1  0.000000 73.477600 44.114086 80.025299
247 2 1  0.000000 75.067436 44.478886 79.992867
248 2 1  0.000000 75.541130 46.267147 80.092598
249 2 1  0.000000 74.885513 48.094776 80.091530
250 2 1  0.000000 76.383049 46.203182 79.731575
251 2 1  0.000000 78.626587 46.351692 80.031403
252 2 1  0.000000 80.670776 46.168427 80.214615
253 2 1  0.000000 82.654686 45.912228 81.001671
254 2 1  0.000000 85.026207 46.426208 81.130836
255 2 1  0.000000 86.353867 46.808250 80.405830
256 2 1  0.000000 88.352737 46.528782 80.557968
257 2 1  0.000000 90.491928 47.393616 80.659401
258 2 1  0.000000 90.787567 47.728161 81.986900
259 2 1  0.000000 91.974052 48.525822 82.183113
260 2 1  0.000000 93.775833 48.539688 81.696945
261 2 1  0.000000 95.519836 48.113762 82.492851
262 2 1  0.000000 96.798027 46.826366 82.819298
263 2 1  0.000000 98.486198 46.922935 82.142357
264 2 1  0.000000 100.320274 46.258202 82.427528
265 2 1  0.000000 102.786636 46.895374 82.357010
266 2 1  0.000000 104.499985 46.194592 81.542419
267 2 1  0.000000 105.841805 45.657185 80.477158
268 2 1  0.000000 107.234497 46.962379 79.737000
269 2 1  0.000000 108.931091 47.081196 79.564674
270 2 1  0.000000 110.870567 47.410908 79.883827
271 2 1  0.000000 112.497040 48.532585 80.023445
272 2 1  0.000000 112.977562 48.881931 78.371750
273 2 1  0.000000 113.970383 47.771175 78.920921
274 2 1  0.000000 115.480087 47.410927 80.346313
275 2 1  0.000000 117.081917 47.367920 80.166687
276 2 1  0.000000 118.823547 46.236122 79.859489
277 2 1  0.000000 120.236504 45.867580 79.489044
278 2 1  0.000000 122.140251 46.219814 78.556740
279 2 1  0.000000 123.127678 46.695251 79.084763
280 2 1  0.000000 124.248055 46.604973 80.387383
281 2 1  0.000000 125.637894 45.490273 80.216614
282 2 1  0.000000 126.013588 44.775009 81.920258
283 2 1  0.000000 127.047882 44.626480 81.093742
284 2 1  0.000000 127.867119 43.812096 80.609810
285 2 1  0.000000 128.651688 44.068008 79.606995
286 2 1  0.000000 129.181519 45.430405 79.743744
287 2 1  0.000000 130.041046 46.683964 79.628242
288 2 1  0.000000 130.890823 47.529755 78.546425
289 2 1  0.000000 132.257355 46.987068 79.070938
290 2 1  0.000000 132.407059 48.093269 80.042053
291 2 1  0.000000 132.751373 49.192070 81.391861
292 2 1  0.000000 133.486801 47.535366 81.701363
293 2 1  0.000000 135.173553 46.965977 81.348595
294 2 1  0.000000 137.097641 47.035767 81.199417
295 2 1  0.000000 138.928558 46.201031 81.899345
296 2 1  0.000000 140.252838 47.398983 82.054611
297 2 1  0.000000 141.754486 47.188183 81.189659
298 2 1  0.000000 141.734238 47.706345 79.413971
299 2 1  0.000000 140.321930 49.085587 79.625908
300 2 1  0.000000 142.203262 49.706196 79.924316
301 3 1  0.000000 15.840667 54.582127 79.950020
302 3 1  0.000000 15.045738 54.085968 80.578888
303 3 1  0.000000 15.783770 54.745159 82.041840
304 3 1  0.000000 17.003626 55.810551 81.276299
305 3 1  0.000000 18.409386 55.636723 81.223320
306 3 1  0.000000 19.987133 56.800941 81.452263
307 3 1  0.000000 20.546093 58.354813 81.748474
308 3 1  0.000000 22.423365 58.296497 82.645660
309 3 1  0.000000 23.392370 59.287399 82.743965
310 3 1  0.000000 24.179594 60.224739 81.407806
311 3 1  0.000000 25.071970 60.543991 80.212128
312 3 1  0.000000 25.462748 61.295174 81.882164
313 3 1  0.000000 26.242546 61.355782 83.103409
314 3 1  0.000000 26.941597 61.772316 82.376945
315 3 1  0.000000 28.171745 61.971294 83.187836
316 3 1  0.000000 29.490557 61.986134 84.138229
317 3 1  0.000000 30.565985 61.022598 83.808044
318 3 1  0.000000 32.384449 60.927734 83.119377
319 3 1  0.000000 33.221909 62.057083 83.480064
320 3 1  0.000000 34.057484 61.745144 84.001373
321 3 1  0.000000 35.133354 63.442577 83.634155
322 3 1  0.000000 36.621849 63.438644 84.919754
323 3 1  0.000000 37.715565 63.181168 84.312805
324 3 1  0.000000 38.935863 64.458763 83.900742
325 3 1  0.000000 41.284176 64.766663 83.887657
326 3 1  0.000000 42.741276 64.581284 83.906097
327 3 1  0.000000 44.428825 63.996826 84.006401
328 3 1  0.000000 46.010677 63.177860 84.282043
329 3 1  0.000000 47.795589 63.107513 83.745712
330 3 1  0.000000 48.588566 62.690681 82.818222
331 3 1  0.000000 50.309994 64.157776 82.710678
332 3 1  0.000000 52.073063 64.236855 81.961426
333 3 1  0.000000 53.663799 65.270905 82.682533
334 3 1  0.000000 56.075386 65.384308 82.264397
335 3 1  0.000000 57.541866 66.093559 82.052330
336 3 1  0.000000 59.254818 66.502541 81.580315
337 3 1  0.000000 60.922462 67.270813 82.258904
338 3 1  0.000000 61.814526 67.129150 81.108749
339 3 1  0.000000 62.874317 65.512878 80.762688
340 3 1  0.000000 64.541779 65.862091 81.531837
341 3 1  0.000000 65.981682 64.475655 81.634789
342 3 1  0.000000 68.330620 63.981956 81.993538
343 3 1  0.000000 70.156044 63.413391 83.027092
344 3 1  0.000000 71.873756 62.835197 83.158234
345 3 1  0.000000 73.413620 61.973019 82.786736
346 3 1  0.000000 74.933128 61.395344 81.732666
347 3 1  0.000000 76.563972 62.930511 81.123955
348 3 1  0.000000 78.629791 62.829136 80.238022
349 3 1  0.000000 80.411240 62.975677 80.081909
350 3 1  0.000000 81.957855 63.889141 80.430122
351 3 1  0.000000 83.148621 62.535378 79.007523
352 3 1  0.000000 84.276360 61.661320 80.113297
353 3 1  0.000000 85.513847 61.860367 79.045341
354 3 1  0.000000 87.121323 60.827919 78.245850
355 3 1  0.000000 88.824501 60.619938 78.370445
356 3 1  0.000000 89.318451 60.008228 79.972504
357 3 1  0.000000 90.994781 59.678398 79.284813
358 3 1  0.000000 91.876091 58.971169 80.574493
359 3 1  0.000000 93.208969 59.053730 80.028389
360 3 1  0.000000 94.178581 59.953793 81.075104
361 3 1  0.000000 95.243683 59.469845 81.663979
362 3 1  0.000000 96.766937 58.631912 81.921013
363 3 1  0.000000 98.053024 59.220367 81.209969
364 3 1  0.000000 99.537598 59.402836 81.299461
365 3 1  0.000000 101.149185 59.139580 80.646240
366 3 1  0.000000 101.907158 57.186241 79.841660
367 3 1  0.000000 103.970108 57.387203 78.912735
368 3 1  0.000000 106.144478 57.574821 78.300049
369 3 1  0.000000 107.205406 56.384064 77.716042
370 3 1  0.000000 108.464371 57.456913 78.612534
371 3 1  0.000000 109.933235 57.533226 79.321114
372 3 1  0.000000 111.770477 57.418369 80.083496
373 3 1  0.000000 112.784058 58.165756 79.275452
374 3 1  0.000000 114.362259 58.386257 79.254951
375 3 1  0.000000 115.855522 57.879169 79.461716
376 3 1  0.000000 117.147530 58.140045 78.828545
377 3 1  0.000000 118.573242 58.220692 78.786858
378 3 1  0.000000 120.349968 58.539570 78.619232
379 3 1  0.000000 121.701088 59.006756 78.064064
380 3 1  0.000000 123.727928 58.260807 78.621498
381 3 1  0.000000 124.505775 57.717457 77.340790
382 3 1  0.000000 125.768456 58.118481 77.942772
383 3 1  0.000000 126.904816 58.447304 77.560341
384 3 1  0.000000 127.467628 57.479435 79.016869
385 3 1  0.000000 128.408447 58.229305 79.043861
386 3 1  0.000000 130.069412 58.541241 77.495316
387 3 1  0.000000 131.573166 57.774952 77.124641
388 3 1  0.000000 131.423203 58.691502 76.026306
389 3 1  0.000000 132.867920 57.685474 76.732239
390 3 1  0.000000 134.069656 59.193680 75.964828
391 3 1  0.000000 134.529160 59.658470 77.447395
392 3 1  0.000000 135.843750 60.704151 77.242569
393 3 1  0.000000 135.052933 62.309933 77.439049
394 3 1  0.000000 136.265335 62.559772 76.748360
395 3 1  0.000000 135.695129 63.603554 77.027725
396 3 1  0.000000 136.076935 63.301056 75.388206
397 3 1  0.000000 136.611404 64.706100 74.528351
398 3 1  0.000000 137.504623 66.090874 75.400276
399 3 1  0.000000 137.169830 65.433601 74.025742
400 3 1  0.000000 137.877182 64.789841 72.663467
401 4 1  0.000000 21.094847 81.059784 75.659546
402 4 1  0.000000 22.189131 82.088745 76.189545
403 4 1  0.000000 20.666357 81.336555 75.327850
404 4 1  0.000000 21.045963 79.686394 76.130791
405 4 1  0.000000 21.073359 77.848022 76.087326
406 4 1  0.000000 22.831175 77.436455 75.832893
407 4 1  0.000000 23.958189 76.773857 77.294617
408 4 1  0.000000 24.220713 76.351273 78.704025
409 4 1  0.000000 23.173994 75.540382 79.912704
410 4 1  0.000000 24.209362 73.599731 79.328339
411 4 1  0.000000 26.064751 73.565384 79.146912
412 4 1  0.000000 27.587799 72.559570 79.196182
413 4 1  0.000000 29.167065 71.873650 79.536873
414 4 1  0.000000 29.781612 71.746590 77.887352
415 4 1  0.000000 31.073765 70.882874 78.734047
416 4 1  0.000000 31.580330 70.455147 80.110725
417 4 1  0.000000 32.536701 70.721542 78.949615
418 4 1  0.000000 33.517296 70.684448 78.047859
419 4 1  0.000000 33.585846 72.239952 77.138916
420 4 1  0.000000 35.564766 72.327805 76.878510
421 4 1  0.000000 37.226677 72.685181 76.452141
422 4 1  0.000000 36.479843 71.519524 75.754448
423 4 1  0.000000 37.723267 70.640007 76.569504
424 4 1  0.000000 39.387749 70.491882 77.848625
425 4 1  0.000000 40.557762 69.524170 77.823936
426 4 1  0.000000 42.800880 69.919144 78.207458
427 4 1  0.000000 44.153049 70.026855 77.907143
428 4 1  0.000000 45.155697 71.398819 78.329094
429 4 1  0.000000 47.005356 70.541832 78.182724
430 4 1  0.000000 48.917877 70.616028 77.801704
431 4 1  0.000000 50.770866 70.491013 78.353333
432 4 1  0.000000 52.255547 70.976013 79.290230
433 4 1  0.000000 53.808830 71.849174 78.865555
434 4 1  0.000000 55.903614 71.514206 79.193077
435 4 1  0.000000 57.602642 72.013878 78.944962
436 4 1  0.000000 58.964172 71.532692 78.269554
437 4 1  0.000000 60.379238 70.460823 77.881302
438 4 1  0.000000 61.095356 70.198471 79.930405
439 4 1  0.000000 62.795940 70.522774 80.677155
440 4 1  0.000000 63.641033 70.243202 79.946365
441 4 1  0.000000 65.860252 70.505844 80.802002
442 4 1  0.000000 67.848282 71.407585 80.296654
443 4 1  0.000000 68.411606 72.978127 81.625565
444 4 1  0.000000 70.035728 73.388695 82.253784
445 4 1  0.000000 71.050156 73.922012 82.537109
446 4 1  0.000000 72.160034 75.639221 82.556335
447 4 1  0.000000 73.869926 75.613274 82.893517
448 4 1  0.000000 75.770409 75.754669 83.373665
449 4 1  0.000000 77.302940 76.212029 83.014847
450 4 1  0.000000 79.577972 76.187630 83.913139
451 4 1  0.000000 81.093285 75.492470 84.293274
452 4 1  0.000000 82.455688 75.492683 85.058418
453 4 1  0.000000 84.194649 75.986763 84.381134
454 4 1  0.000000 85.897896 77.267731 84.228630
455 4 1  0.000000 87.969170 76.912712 84.998840
456 4 1  0.000000 89.877731 77.256981 84.499115
457 4 1  0.000000 91.418678 78.459373 84.587975
458 4 1  0.000000 92.957314 79.058044 84.752998
459 4 1  0.000000 94.263794 79.827629 86.485931
460 4 1  0.000000 95.830276 78.994835 86.089348
461 4 1  0.000000 96.585228 78.661858 84.834335
462 4 1  0.000000 97.979774 78.705360 83.530968
463 4 1  0.000000 98.706047 77.874382 84.786011
464 4 1  0.000000 100.170898 78.263313 84.529755
465 4 1  0.000000 101.980515 78.457718 85.628197
466 4 1  0.000000 103.125816 79.216789 86.698509
467 4 1  0.000000 104.688972 78.749908 86.227493
468 4 1  0.000000 106.316528 80.004150 85.957657
469 4 1  0.000000 106.222878 79.157982 84.729950
470 4 1  0.000000 107.651131 78.033607 84.611427
471 4 1  0.000000 109.625160 78.602409 85.071075
472 4 1  0.000000 110.870277 78.389229 84.491455
473 4 1  0.000000 111.630638 77.336952 84.250122
474 4 1  0.000000 113.377060 76.115875 84.492790
475 4 1  0.000000 114.963226 75.456673 85.528717
476 4 1  0.000000 116.743309 74.568283 85.188301
477 4 1  0.000000 118.582611 73.789040 85.666389
478 4 1  0.000000 119.264572 72.194984 85.973763
479 4 1  0.000000 120.866104 71.195908 85.758224
480 4 1  0.000000 122.276031 71.083824 85.703644
481 4 1  0.000000 123.790886 71.809525 85.672852
482 4 1  0.000000 125.089767 70.994156 84.357452
483 4 1  0.000000 126.774765 70.517738 83.410934
484 4 1  0.000000 127.634422 69.944969 84.577759
485 4 1  0.000000 127.884842 67.946442 84.805107
486 4 1  0.000000 128.984329 67.493202 84.831535
487 4 1  0.000000 130.179276 67.147690 84.159737
488 4 1  0.000000 131.354721 65.719711 84.209587
489 4 1  0.000000 133.093384 65.969025 84.986450
490 4 1  0.000000 133.882828 66.617149 83.153389
491 4 1  0.000000 133.898376 64.775642 82.971199
492 4 1  0.000000 135.211426 64.957214 83.915039
493 4 1  0.000000 135.787598 66.644257 83.756966
494 4 1  0.000000 136.730591 67.634132 84.651718
495 4 1  0.000000 137.028320 68.734207 83.458870
496 4 1  0.000000 136.266525 68.779175 84.472252
497 4 1  0.000000 135.360107 69.843338 84.760864
498 4 1  0.000000 135.771606 71.543686 84.049637
499 4 1  0.000000 135.078873 73.183693 83.008408
500 4 1  0.000000 136.165009 73.020630 81.822075
501 5 1  0.000000 18.925835 90.698593 73.583626
502 5 1  0.000000 19.920807 89.127701 72.991020
503 5 1  0.000000 20.229746 90.746605 73.618713
504 5 1  0.000000 21.128330 89.949844 72.361877
505 5 1  0.000000 22.580439 90.035103 73.513206
506 5 1  0.000000 23.173374 89.039894 73.931252
507 5 1  0.000000 25.031973 90.023697 74.005531
508 5 1  0.000000 25.837292 89.327095 75.186005
509 5 1  0.000000 25.586388 87.889847 76.050758
510 5 1  0.000000 27.194132 87.998657 75.523987
511 5 1  0.000000 26.804928 88.744690 76.671509
512 5 1  0.000000 27.841507 89.607742 77.116241
513 5 1  0.000000 28.560738 89.203140 78.709999
514 5 1  0.000000 29.954098 87.710114 79.007835
515 5 1  0.000000 31.254467 87.274452 79.533028
516 5 1  0.000000 31.938555 88.168304 79.030357
517 5 1  0.000000 33.151958 87.820892 77.706490
518 5 1  0.000000 34.927319 88.751686 78.230286
519 5 1  0.000000 36.454506 87.698677 77.791153
520 5 1  0.000000 37.096703 89.413773 77.042000
521 5 1  0.000000 36.936497 88.447220 75.829521
522 5 1  0.000000 38.832806 88.359436 75.379120
523 5 1  0.000000 40.639530 87.851204 75.685944
524 5 1  0.000000 41.896046 86.728020 75.886566
525 5 1  0.000000 43.358952 85.971741 76.421867
526 5 1  0.000000 44.559925 86.372795 78.057915
527 5 1  0.000000 45.922596 85.581909 78.510635
528 5 1  0.000000 46.490574 85.255424 79.814995
529 5 1  0.000000 48.462715 84.657303 80.034309
530 5 1  0.000000 50.677845 85.012085 79.198395
531 5 1  0.000000 52.212349 84.916428 79.049911
532 5 1  0.000000 53.611912 84.766571 79.695839
533 5 1  0.000000 54.985611 84.766922 79.105446
534 5 1  0.000000 56.659794 83.717720 78.558029
535 5 1  0.000000 58.544563 84.110443 78.555359
536 5 1  0.000000 60.673508 84.728241 78.918098
537 5 1  0.000000 62.039299 85.634628 78.905197
538 5 1  0.000000 62.304981 84.007721 79.677795
539 5 1  0.000000 63.533699 83.384575 78.925629
540 5 1  0.000000 64.911583 83.947433 78.026817
541 5 1  0.000000 65.927208 84.428825 77.807838
542 5 1  0.000000 67.335060 83.452309 76.921974
543 5 1  0.000000 69.431892 83.485863 76.743973
544 5 1  0.000000 71.134636 82.664360 76.712341
545 5 1  0.000000 73.085815 82.209793 76.201683
546 5 1  0.000000 74.779343 81.427505 76.435905
547 5 1  0.000000 76.353714 80.976204 76.017174
548 5 1  0.000000 78.250038 80.378380 76.691132
549 5 1  0.000000 80.472122 80.493233 76.038528
550 5 1  0.000000 82.074142 80.624161 77.042938
551 5 1  0.000000 82.544121 81.295135 78.070145
552 5 1  0.000000 83.427902 81.777534 76.884224
553 5 1  0.000000 85.076019 82.113358 77.417000
554 5 1  0.000000 86.633629 82.867554 77.199776
555 5 1  0.000000 88.230492 83.217010 76.279083
556 5 1  0.000000 89.473701 84.015640 75.431252
557 5 1  0.000000 90.842812 84.889595 74.984207
558 5 1  0.000000 92.924866 85.778839 75.345261
559 5 1  0.000000 94.922478 85.284286 75.037598
560 5 1  0.000000 96.007172 84.661713 74.356804
561 5 1  0.000000 98.236046 83.701073 73.798073
562 5 1  0.000000 99.424591 83.735344 73.028435
563 5 1  0.000000 101.208527 84.485847 73.527145
564 5 1  0.000000 102.724632 84.805756 74.834488
565 5 1  0.000000 104.973289 84.703171 75.775841
566 5 1  0.000000 106.160858 83.722061 76.959015
567 5 1  0.000000 107.702873 83.774666 76.483391
568 5 1  0.000000 109.468117 84.037537 76.964935
569 5 1  0.000000 110.064026 86.240349 76.760742
570 5 1  0.000000 111.133865 86.414917 78.448067
571 5 1  0.000000 113.144371 86.411880 77.908852
572 5 1  0.000000 115.256828 85.682190 78.832535
573 5 1  0.000000 117.364151 85.907303 79.038261
574 5 1  0.000000 119.026649 86.160378 78.286720
575 5 1  0.000000 120.939415 86.596909 77.624077
576 5 1  0.000000 121.437683 88.168243 78.615562
577 5 1  0.000000 123.291199 88.499390 79.214073
578 5 1  0.000000 125.375908 88.573601 79.316460
579 5 1  0.000000 127.008438 89.309204 78.394730
580 5 1  0.000000 127.123367 88.565430 80.383232
581 5 1  0.000000 128.972702 88.940140 80.346046
582 5 1  0.000000 130.346970 88.338173 81.080963
583 5 1  0.000000 131.321228 88.772293 80.089081
584 5 1  0.000000 131.899200 88.963127 81.782249
585 5 1  0.000000 133.200638 88.073326 82.225731
586 5 1  0.000000 133.288025 87.237640 84.080696
587 5 1  0.000000 134.639526 85.998421 84.521736
588 5 1  0.000000 135.912720 86.782486 84.767891
589 5 1  0.000000 136.224670 87.815292 86.157433
590 5 1  0.000000 137.088364 88.686790 86.813576
591 5 1  0.000000 138.349258 89.624481 86.629311
592 5 1  0.000000 139.984573 89.903801 86.626610
593 5 1  0.000000 140.765640 89.745026 85.482513
594 5 1  0.000000 141.918640 88.698990 84.488319
595 5 1  0.000000 143.053955 89.843689 84.242203
596 5 1  0.000000 144.422073 89.982689 83.825272
597 5 1  0.000000 145.690887 88.941566 84.703156
598 5 1  0.000000 145.523285 89.458740 86.155479
599 5 1  0.000000 146.388138 90.005035 84.908493
600 5 1  0.000000 146.443878 91.255028 85.800880
601 6 1  0.000000 24.010979 95.142036 82.554420
602 6 1  0.000000 23.981400 93.264038 83.179230
603 6 1  0.000000 25.122501 93.027390 84.921837
604 6 1  0.000000 24.950655 91.661530 85.433197
605 6 1  0.000000 26.215122 92.829391 85.243950
606 6 1  0.000000 26.759186 93.884796 86.209061
607 6 1  0.000000 26.956860 94.832268 87.330414
608 6 1  0.000000 27.651850 95.835625 87.887222
609 6 1  0.000000 28.217297 96.025932 89.743721
610 6 1  0.000000 28.342714 97.008865 88.877022
611 6 1  0.000000 29.978931 96.786026 89.361931
612 6 1  0.000000 31.203581 96.465416 90.291954
613 6 1  0.000000 32.785839 96.336327 90.520103
614 6 1  0.000000 33.471489 95.303024 89.767220