Created with TaichiMD

1000 atoms
990 bonds
  0 angles
  0 dihedrals
  0 impropers

1 atom types
1 bond types
0 angle types
0 dihedral types
0 improper types

-80.00000  80.00000 xlo xhi
-80.00000  80.00000 ylo yhi
-80.00000  80.00000 zlo zhi

Masses

1  1.0000

Atoms

  1 0 1  0.000000 119.456055 -3.100376 46.433136
  2 0 1  0.000000 118.461708 -2.419743 47.241566
  3 0 1  0.000000 117.879959 -2.546217 48.805492
  4 0 1  0.000000 116.560997 -1.937126 48.653751
  5 0 1  0.000000 115.100769 -1.180966 48.828880
  6 0 1  0.000000 114.403221 -2.434103 49.333851
  7 0 1  0.000000 113.904884 -2.369433 50.766212
  8 0 1  0.000000 112.523582 -3.010456 51.364529
  9 0 1  0.000000 111.638763 -3.905663 52.372627
 10 0 1  0.000000 112.941879 -4.027505 53.392170
 11 0 1  0.000000 113.717087 -4.224224 54.703514
 12 0 1  0.000000 114.144363 -3.284493 55.933105
 13 0 1  0.000000 115.055313 -2.032134 55.436611
 14 0 1  0.000000 116.452545 -2.366691 54.897774
 15 0 1  0.000000 116.506119 -1.034835 55.445839
 16 0 1  0.000000 117.638672 -1.481661 54.724731
 17 0 1  0.000000 118.493309 -0.499111 54.919353
 18 0 1  0.000000 119.158142 -0.051165 56.171883
 19 0 1  0.000000 119.139328  0.823544 57.571449
 20 0 1  0.000000 117.721619  1.136120 58.470432
 21 0 1  0.000000 116.504036  0.652414 59.244797
 22 0 1  0.000000 116.970665  1.342940 60.632854
 23 0 1  0.000000 117.748489  2.584736 61.103539
 24 0 1  0.000000 116.688583  3.036198 61.999672
 25 0 1  0.000000 116.888847  1.687264 62.716045
 26 0 1  0.000000 115.904510  1.975367 63.647221
 27 0 1  0.000000 114.978569  2.042613 65.108978
 28 0 1  0.000000 113.921104  2.342655 64.275986
 29 0 1  0.000000 112.857224  3.287110 64.681923
 30 0 1  0.000000 112.307152  2.032205 65.351578
 31 0 1  0.000000 111.129768  3.182928 64.983917
 32 0 1  0.000000 110.144577  2.102508 64.747444
 33 0 1  0.000000 108.620049  1.852748 65.197075
 34 0 1  0.000000 107.925896  2.180444 66.403282
 35 0 1  0.000000 107.841209  3.186716 67.411140
 36 0 1  0.000000 106.602722  2.012035 67.824135
 37 0 1  0.000000 106.564392  1.498679 69.317841
 38 0 1  0.000000 106.211502  0.148539 69.329605
 39 0 1  0.000000 104.972794 -0.169759 68.858994
 40 0 1  0.000000 104.116959 -1.258330 68.906189
 41 0 1  0.000000 103.083557 -2.436048 69.096321
 42 0 1  0.000000 102.756752 -1.708921 70.376266
 43 0 1  0.000000 103.735573 -2.854102 70.049095
 44 0 1  0.000000 102.346367 -3.482855 71.139465
 45 0 1  0.000000 102.811493 -4.322799 72.345650
 46 0 1  0.000000 102.085106 -5.668600 72.443710
 47 0 1  0.000000 101.601830 -5.692646 73.853668
 48 0 1  0.000000 101.313164 -5.411143 75.206940
 49 0 1  0.000000 100.293678 -6.211427 75.821297
 50 0 1  0.000000 99.082291 -5.919796 76.675316
 51 0 1  0.000000 98.016617 -6.678952 75.875381
 52 0 1  0.000000 97.496872 -5.815835 76.914566
 53 0 1  0.000000 96.212166 -6.366094 77.637726
 54 0 1  0.000000 95.374619 -5.357078 78.013367
 55 0 1  0.000000 95.004021 -4.108978 78.576248
 56 0 1  0.000000 93.941132 -4.753816 77.772499
 57 0 1  0.000000 92.752365 -3.948915 78.511414
 58 0 1  0.000000 91.627205 -3.338964 79.681198
 59 0 1  0.000000 90.096939 -2.904667 79.692337
 60 0 1  0.000000 89.335236 -2.186745 78.588310
 61 0 1  0.000000 88.079155 -2.487517 79.108810
 62 0 1  0.000000 87.741737 -0.875525 78.686951
 63 0 1  0.000000 88.522171  0.621597 79.450150
 64 0 1  0.000000 87.424591  1.820608 79.682755
 65 0 1  0.000000 87.958206  1.141672 81.091354
 66 0 1  0.000000 87.891876 -0.054124 82.094772
 67 0 1  0.000000 88.221878  0.663192 83.406181
 68 0 1  0.000000 86.616745  1.026117 83.514076
 69 0 1  0.000000 85.262894  1.576060 83.867340
 70 0 1  0.000000 84.355789  2.039287 82.668961
 71 0 1  0.000000 83.697121  1.410292 81.331886
 72 0 1  0.000000 82.603325  1.647914 80.534897
 73 0 1  0.000000 83.178520  0.163583 80.147804
 74 0 1  0.000000 82.125175 -0.971297 80.165184
 75 0 1  0.000000 83.472389 -1.965712 80.572083
 76 0 1  0.000000 83.099030 -3.198095 79.634659
 77 0 1  0.000000 81.946556 -3.761376 79.178268
 78 0 1  0.000000 82.756134 -4.675810 78.447685
 79 0 1  0.000000 83.217575 -4.427268 77.012108
 80 0 1  0.000000 83.091492 -5.867281 76.796982
 81 0 1  0.000000 82.541740 -7.343527 76.401726
 82 0 1  0.000000 82.622444 -8.841373 76.264084
 83 0 1  0.000000 82.179771 -9.043524 77.617180
 84 0 1  0.000000 83.718842 -9.543037 78.132332
 85 0 1  0.000000 84.994598 -10.438061 78.657082
 86 0 1  0.000000 84.347847 -11.817851 78.590187
 87 0 1  0.000000 85.815781 -11.778196 79.362640
 88 0 1  0.000000 85.330933 -13.207063 79.061501
 89 0 1  0.000000 84.417137 -14.115378 79.938080
 90 0 1  0.000000 83.038208 -14.500657 80.399857
 91 0 1  0.000000 81.612061 -14.380084 80.028625
 92 0 1  0.000000 80.238792 -14.324168 79.057251
 93 0 1  0.000000 80.268570 -13.043175 78.153320
 94 0 1  0.000000 79.493179 -11.963287 77.922768
 95 0 1  0.000000 78.752457 -13.283987 77.149490
 96 0 1  0.000000 77.600998 -12.345391 76.572594
 97 0 1  0.000000 76.217964 -12.129365 75.685707
 98 0 1  0.000000 74.974686 -12.964980 75.834091
 99 0 1  0.000000 74.400314 -11.620502 76.098640
100 0 1  0.000000 73.105896 -10.991018 75.949448
101 1 1  0.000000 104.615677 46.237072 94.734474
102 1 1  0.000000 104.131180 46.451786 93.276550
103 1 1  0.000000 105.139702 47.007565 92.338745
104 1 1  0.000000 105.834839 45.681274 91.961098
105 1 1  0.000000 106.349876 44.321316 91.279884
106 1 1  0.000000 107.198563 44.631561 90.186150
107 1 1  0.000000 107.703117 45.388126 89.037041
108 1 1  0.000000 107.463150 44.597946 87.827003
109 1 1  0.000000 106.912560 46.027847 87.382545
110 1 1  0.000000 108.446709 46.082474 86.854431
111 1 1  0.000000 109.371170 46.418655 85.631706
112 1 1  0.000000 110.567085 45.582069 85.227959
113 1 1  0.000000 111.857964 45.015549 85.190559
114 1 1  0.000000 110.775703 44.576996 83.943192
115 1 1  0.000000 111.480812 43.307327 84.534431
116 1 1  0.000000 112.464401 42.328903 84.253799
117 1 1  0.000000 112.326912 40.943661 83.502831
118 1 1  0.000000 113.158997 40.156300 82.348289
119 1 1  0.000000 113.502419 41.313412 81.298576
120 1 1  0.000000 113.601219 41.830482 79.900116
121 1 1  0.000000 112.721725 42.759583 79.319115
122 1 1  0.000000 112.824951 42.668243 77.726471
123 1 1  0.000000 112.522682 41.246841 77.456955
124 1 1  0.000000 112.914413 40.248840 76.260628
125 1 1  0.000000 111.679832 40.000656 75.215599
126 1 1  0.000000 110.222130 40.490929 75.162018
127 1 1  0.000000 108.890289 40.530792 76.174217
128 1 1  0.000000 109.411774 39.513081 77.232628
129 1 1  0.000000 109.737076 39.072605 78.720833
130 1 1  0.000000 109.702087 39.201622 80.107132
131 1 1  0.000000 108.241081 39.434185 80.268723
132 1 1  0.000000 108.539612 39.917915 81.808678
133 1 1  0.000000 108.729431 40.719261 83.215576
134 1 1  0.000000 107.840149 41.927361 83.266144
135 1 1  0.000000 106.765236 41.873856 84.403328
136 1 1  0.000000 105.647591 42.149620 85.412781
137 1 1  0.000000 105.749069 40.911263 86.030724
138 1 1  0.000000 105.975266 39.438400 85.464966
139 1 1  0.000000 106.091866 37.876991 85.029350
140 1 1  0.000000 104.504135 37.702873 84.692131
141 1 1  0.000000 102.988052 37.448811 84.601326
142 1 1  0.000000 101.956856 38.370575 83.892181
143 1 1  0.000000 101.393524 39.741528 83.950737
144 1 1  0.000000 100.796440 41.304741 84.365616
145 1 1  0.000000 101.771858 42.467838 84.341431
146 1 1  0.000000 101.048218 41.827854 83.063751
147 1 1  0.000000 101.137138 42.856327 81.658379
148 1 1  0.000000 100.605949 44.375793 80.958107
149 1 1  0.000000 100.718376 45.618084 79.635544
150 1 1  0.000000 99.738480 46.926640 79.524040
151 1 1  0.000000 98.653915 46.759651 80.510056
152 1 1  0.000000 98.139359 47.002365 81.981621
153 1 1  0.000000 98.316307 47.341843 83.442223
154 1 1  0.000000 98.546936 48.525913 84.062645
155 1 1  0.000000 97.250305 47.948177 84.470345
156 1 1  0.000000 96.403465 47.254879 85.466599
157 1 1  0.000000 95.341492 48.361122 85.223572
158 1 1  0.000000 94.514793 49.726089 85.203621
159 1 1  0.000000 93.993706 50.686680 86.294785
160 1 1  0.000000 93.002342 51.265907 85.331970
161 1 1  0.000000 91.726852 52.189999 84.964554
162 1 1  0.000000 92.241791 52.678158 83.484596
163 1 1  0.000000 90.416405 52.577595 83.630676
164 1 1  0.000000 89.803368 51.374226 82.603378
165 1 1  0.000000 89.173447 52.648388 82.051559
166 1 1  0.000000 87.905327 53.364674 83.003105
167 1 1  0.000000 86.530754 54.163193 82.827538
168 1 1  0.000000 85.632103 55.026215 81.942139
169 1 1  0.000000 84.435997 55.663963 82.696907
170 1 1  0.000000 83.493965 54.618649 82.287018
171 1 1  0.000000 83.121071 53.097061 82.058167
172 1 1  0.000000 81.871552 52.562134 82.868523
173 1 1  0.000000 82.604500 52.095051 84.171181
174 1 1  0.000000 83.221016 50.534969 84.181244
175 1 1  0.000000 82.317711 49.831085 85.057083
176 1 1  0.000000 81.626320 48.684341 85.606819
177 1 1  0.000000 80.350372 48.275642 84.972832
178 1 1  0.000000 79.249832 47.418056 84.162331
179 1 1  0.000000 79.349472 48.631031 83.346046
180 1 1  0.000000 78.134003 49.623837 83.798111
181 1 1  0.000000 78.175041 50.209850 82.414566
182 1 1  0.000000 77.674126 51.359146 83.301353
183 1 1  0.000000 76.123611 51.286434 83.021950
184 1 1  0.000000 76.144485 52.763462 83.700119
185 1 1  0.000000 75.133949 52.479568 82.505196
186 1 1  0.000000 74.735909 53.741581 82.497391
187 1 1  0.000000 74.465919 55.140415 83.069313
188 1 1  0.000000 74.081306 56.177948 81.916817
189 1 1  0.000000 74.204262 57.755665 81.239166
190 1 1  0.000000 74.631371 58.912399 80.365158
191 1 1  0.000000 75.336143 59.788486 79.590172
192 1 1  0.000000 75.354630 59.885048 77.978630
193 1 1  0.000000 74.410217 61.241913 77.600418
194 1 1  0.000000 72.785439 61.166092 77.427010
195 1 1  0.000000 71.343506 60.787663 77.307579
196 1 1  0.000000 70.592499 59.806744 77.270981
197 1 1  0.000000 70.894295 58.509823 76.344643
198 1 1  0.000000 69.261322 58.854153 76.096786
199 1 1  0.000000 69.613892 57.857082 74.957344
200 1 1  0.000000 69.126778 56.623234 75.688751
201 2 1  0.000000 127.088280 50.014168 64.296036
202 2 1  0.000000 125.947243 50.772984 64.761124
203 2 1  0.000000 125.320175 49.449242 65.471817
204 2 1  0.000000 124.419670 48.408924 64.704803
205 2 1  0.000000 124.993958 47.263519 64.074852
206 2 1  0.000000 125.112724 45.848473 63.266525
207 2 1  0.000000 126.627724 45.549313 63.122059
208 2 1  0.000000 127.457932 44.370152 63.508751
209 2 1  0.000000 126.278519 43.336884 63.962772
210 2 1  0.000000 125.901688 43.247505 65.456299
211 2 1  0.000000 127.029930 41.894722 65.672966
212 2 1  0.000000 127.128372 40.342747 65.937172
213 2 1  0.000000 126.006706 40.616112 67.018044
214 2 1  0.000000 124.846672 39.759701 66.342140
215 2 1  0.000000 124.389748 38.733509 65.331924
216 2 1  0.000000 123.079437 38.109501 64.813644
217 2 1  0.000000 121.724754 37.861698 64.841393
218 2 1  0.000000 121.043793 38.149750 66.144966
219 2 1  0.000000 120.106575 39.015839 67.014488
220 2 1  0.000000 120.225365 40.281418 67.766846
221 2 1  0.000000 119.852745 41.259655 66.701424
222 2 1  0.000000 118.427162 41.871914 67.013977
223 2 1  0.000000 118.199631 41.634899 65.388481
224 2 1  0.000000 116.878372 42.027931 64.683434
225 2 1  0.000000 115.731384 41.377396 65.638420
226 2 1  0.000000 114.156738 41.143131 64.937035
227 2 1  0.000000 112.803810 41.814396 65.202087
228 2 1  0.000000 111.946953 40.514912 65.095375
229 2 1  0.000000 112.412865 40.714985 66.626877
230 2 1  0.000000 111.235382 39.861645 66.906837
231 2 1  0.000000 109.722984 39.715675 66.967712
232 2 1  0.000000 109.277641 40.839310 67.949936
233 2 1  0.000000 109.404465 41.557930 69.320129
234 2 1  0.000000 108.819221 40.843517 70.566475
235 2 1  0.000000 107.816299 41.631824 71.478348
236 2 1  0.000000 106.496902 40.567898 71.308006
237 2 1  0.000000 104.996101 40.111855 71.013046
238 2 1  0.000000 103.974594 39.529758 70.074486
239 2 1  0.000000 103.027977 38.731426 71.009384
240 2 1  0.000000 102.125656 40.011902 70.767426
241 2 1  0.000000 100.733047 40.684261 71.429344
242 2 1  0.000000 99.263283 41.477402 71.132690
243 2 1  0.000000 98.006432 40.705803 70.923378
244 2 1  0.000000 96.819008 41.672150 70.928841
245 2 1  0.000000 95.355644 40.866577 71.367462
246 2 1  0.000000 95.165787 41.554928 72.751381
247 2 1  0.000000 94.081978 42.569641 72.942970
248 2 1  0.000000 93.138969 43.477638 74.034134
249 2 1  0.000000 93.623299 44.457928 75.061531
250 2 1  0.000000 92.418320 44.841759 75.916031
251 2 1  0.000000 91.948235 46.133705 75.596695
252 2 1  0.000000 91.458641 46.162560 77.246155
253 2 1  0.000000 90.060196 46.364697 77.607040
254 2 1  0.000000 89.533890 47.778198 78.037392
255 2 1  0.000000 89.048950 48.805176 79.141258
256 2 1  0.000000 88.145607 49.343845 80.185692
257 2 1  0.000000 86.893494 50.028320 79.331596
258 2 1  0.000000 86.328201 51.316925 78.893822
259 2 1  0.000000 86.250160 52.532337 77.846794
260 2 1  0.000000 85.435715 51.143559 77.885048
261 2 1  0.000000 84.023026 51.806461 77.491364
262 2 1  0.000000 82.655968 51.978233 77.932198
263 2 1  0.000000 81.765411 51.517361 79.163872
264 2 1  0.000000 80.600212 52.000237 77.965004
265 2 1  0.000000 79.194374 51.200394 78.773247
266 2 1  0.000000 79.057236 52.802856 78.779327
267 2 1  0.000000 77.644310 52.999821 79.025536
268 2 1  0.000000 76.396919 53.792648 78.757301
269 2 1  0.000000 76.391724 53.740768 76.991119
270 2 1  0.000000 75.213158 53.196465 77.720955
271 2 1  0.000000 73.775223 53.210659 78.344765
272 2 1  0.000000 72.696526 53.392208 79.516266
273 2 1  0.000000 71.322800 52.829887 80.342796
274 2 1  0.000000 70.239403 53.966816 80.898224
275 2 1  0.000000 70.694359 54.259018 82.429985
276 2 1  0.000000 70.360611 54.002522 84.034081
277 2 1  0.000000 68.909180 54.516678 84.400337
278 2 1  0.000000 67.883141 54.763119 83.406448
279 2 1  0.000000 66.639870 55.152615 82.658470
280 2 1  0.000000 65.922890 54.501049 83.871628
281 2 1  0.000000 64.738205 53.926369 84.839928
282 2 1  0.000000 63.093163 54.331589 85.049911
283 2 1  0.000000 62.637707 53.979713 86.650673
284 2 1  0.000000 62.047409 54.717655 87.782021
285 2 1  0.000000 61.736401 55.758411 86.617149
286 2 1  0.000000 60.478542 55.865219 87.130196
287 2 1  0.000000 59.051170 55.978287 86.989532
288 2 1  0.000000 59.444389 57.493259 86.298500
289 2 1  0.000000 59.596111 59.027462 86.172157
290 2 1  0.000000 58.709118 59.455925 87.476776
291 2 1  0.000000 58.326794 60.787846 86.835983
292 2 1  0.000000 56.860001 61.539009 87.428574
293 2 1  0.000000 56.153076 60.540768 88.280579
294 2 1  0.000000 55.197224 61.682739 87.535301
295 2 1  0.000000 55.831375 62.594078 88.738014
296 2 1  0.000000 55.299641 62.337986 90.137505
297 2 1  0.000000 54.924934 61.564274 91.658409
298 2 1  0.000000 54.218647 62.926197 92.280075
299 2 1  0.000000 54.160652 61.825966 93.557899
300 2 1  0.000000 54.203140 60.048241 93.667831
301 3 1  0.000000 43.133579 73.471672 94.393837
302 3 1  0.000000 43.622700 72.952400 95.615631
303 3 1  0.000000 42.802242 72.924683 97.013985
304 3 1  0.000000 43.399033 71.574028 96.846184
305 3 1  0.000000 43.455666 70.475372 95.988220
306 3 1  0.000000 43.787937 69.170654 96.414413
307 3 1  0.000000 44.178486 67.657600 96.846077
308 3 1  0.000000 44.225842 67.855186 98.196373
309 3 1  0.000000 44.771542 66.460548 97.513008
310 3 1  0.000000 46.134659 66.298210 98.095039
311 3 1  0.000000 47.477367 65.246918 97.710396
312 3 1  0.000000 46.871494 64.063766 96.948921
313 3 1  0.000000 47.261539 62.740543 96.280998
314 3 1  0.000000 48.376621 61.979534 95.613846
315 3 1  0.000000 49.827766 61.594582 94.946045
316 3 1  0.000000 49.726303 60.639290 96.323448
317 3 1  0.000000 50.859928 60.557999 97.394966
318 3 1  0.000000 50.695210 59.423134 96.494347
319 3 1  0.000000 51.365940 58.138950 96.210823
320 3 1  0.000000 51.734543 57.194752 97.408897
321 3 1  0.000000 51.405514 55.787086 97.474243
322 3 1  0.000000 50.377449 54.751213 98.297600
323 3 1  0.000000 49.409637 54.064667 97.227661
324 3 1  0.000000 48.310738 52.844345 97.563774
325 3 1  0.000000 48.112446 53.217819 96.095528
326 3 1  0.000000 48.030087 53.209759 94.381592
327 3 1  0.000000 48.013103 51.728699 94.136162
328 3 1  0.000000 47.719646 51.278030 92.421074
329 3 1  0.000000 49.003376 50.572712 92.993340
330 3 1  0.000000 49.330803 49.420757 92.275284
331 3 1  0.000000 50.010803 48.221626 92.851616
332 3 1  0.000000 51.281860 47.361084 92.303139
333 3 1  0.000000 52.342434 46.566513 91.332726
334 3 1  0.000000 52.389648 45.399876 90.391258
335 3 1  0.000000 52.164165 43.919724 90.215698
336 3 1  0.000000 52.768917 42.822685 89.060150
337 3 1  0.000000 54.008751 43.429745 89.634758
338 3 1  0.000000 54.844570 42.037003 89.556725
339 3 1  0.000000 55.464001 41.112892 88.488403
340 3 1  0.000000 56.228836 42.214664 89.378555
341 3 1  0.000000 57.665066 42.057838 90.174347
342 3 1  0.000000 58.798447 42.794403 89.446617
343 3 1  0.000000 59.783535 43.680740 88.545013
344 3 1  0.000000 59.870121 45.076298 89.255249
345 3 1  0.000000 61.034405 44.158714 88.575287
346 3 1  0.000000 62.540180 44.849533 88.930367
347 3 1  0.000000 63.367111 43.573387 89.119789
348 3 1  0.000000 63.593925 42.805492 87.787788
349 3 1  0.000000 62.792942 41.641918 86.899254
350 3 1  0.000000 62.065121 41.475170 85.421387
351 3 1  0.000000 63.690594 41.616558 85.013260
352 3 1  0.000000 63.309925 41.531933 83.547546
353 3 1  0.000000 62.127590 42.400185 83.094223
354 3 1  0.000000 61.502937 43.986397 83.058502
355 3 1  0.000000 60.394859 44.391930 82.153908
356 3 1  0.000000 59.959202 45.639606 81.322075
357 3 1  0.000000 60.216686 47.040783 81.555397
358 3 1  0.000000 60.228096 48.236515 80.996582
359 3 1  0.000000 59.235638 48.796955 79.942024
360 3 1  0.000000 59.772949 49.946510 79.051941
361 3 1  0.000000 61.019840 49.368248 78.144463
362 3 1  0.000000 62.101891 50.264347 79.188896
363 3 1  0.000000 62.999928 51.514099 78.960312
364 3 1  0.000000 63.965042 51.711853 80.383377
365 3 1  0.000000 63.685848 50.647438 81.481300
366 3 1  0.000000 63.287327 50.318401 82.825233
367 3 1  0.000000 62.548721 49.881680 83.932076
368 3 1  0.000000 63.336845 48.638271 84.765099
369 3 1  0.000000 62.741676 48.602093 86.216423
370 3 1  0.000000 63.521179 49.952320 86.683884
371 3 1  0.000000 62.334145 49.915173 87.735497
372 3 1  0.000000 60.685307 49.591133 87.334572
373 3 1  0.000000 60.006401 50.909191 86.945328
374 3 1  0.000000 58.917973 51.406620 86.104736
375 3 1  0.000000 57.774952 51.164219 85.110657
376 3 1  0.000000 58.624020 51.440884 84.127831
377 3 1  0.000000 58.854507 52.805023 83.665451
378 3 1  0.000000 59.462971 52.780560 82.261353
379 3 1  0.000000 59.490398 54.417000 81.890465
380 3 1  0.000000 60.808216 55.276188 81.879074
381 3 1  0.000000 61.326603 56.906258 81.372131
382 3 1  0.000000 62.593567 56.782467 82.284737
383 3 1  0.000000 62.017910 57.849072 83.440018
384 3 1  0.000000 62.486015 58.584068 82.182152
385 3 1  0.000000 63.748734 58.995750 82.853271
386 3 1  0.000000 64.835625 60.382336 82.688049
387 3 1  0.000000 64.964035 59.673317 83.998375
388 3 1  0.000000 65.722580 61.049564 84.560280
389 3 1  0.000000 65.598686 61.052090 85.901497
390 3 1  0.000000 64.679779 60.441532 86.891563
391 3 1  0.000000 63.940708 59.746002 87.987434
392 3 1  0.000000 64.620941 61.047626 88.744576
393 3 1  0.000000 63.222889 61.813072 89.185509
394 3 1  0.000000 63.568321 62.983452 90.248779
395 3 1  0.000000 62.550282 62.603401 91.467751
396 3 1  0.000000 61.482288 63.454563 92.524300
397 3 1  0.000000 62.948425 63.119801 93.194466
398 3 1  0.000000 62.748722 62.361187 94.480263
399 3 1  0.000000 63.461098 62.162647 95.939888
400 3 1  0.000000 62.837139 60.961327 94.955788
401 4 1  0.000000 66.975395 49.053837 74.370857
402 4 1  0.000000 65.917816 50.108418 73.896736
403 4 1  0.000000 66.784637 51.008629 73.017067
404 4 1  0.000000 66.899078 52.411900 72.774925
405 4 1  0.000000 65.750008 52.941616 73.455429
406 4 1  0.000000 64.302864 53.572189 73.552544
407 4 1  0.000000 63.890198 54.148968 74.648163
408 4 1  0.000000 62.737404 55.053680 75.213196
409 4 1  0.000000 61.584259 55.661259 74.394089
410 4 1  0.000000 60.809910 55.709953 72.874275
411 4 1  0.000000 60.872505 56.687038 73.841904
412 4 1  0.000000 59.236069 57.216248 73.617477
413 4 1  0.000000 58.998188 58.505459 74.088066
414 4 1  0.000000 59.988762 59.824867 74.365631
415 4 1  0.000000 61.273914 60.636253 74.857117
416 4 1  0.000000 60.502121 61.644016 75.366570
417 4 1  0.000000 61.579853 60.927574 75.984871
418 4 1  0.000000 62.360039 61.801056 77.074966
419 4 1  0.000000 63.034664 61.742733 78.361191
420 4 1  0.000000 63.762550 62.780655 79.385056
421 4 1  0.000000 62.784256 63.479618 80.330956
422 4 1  0.000000 61.154575 63.102310 80.670685
423 4 1  0.000000 60.861568 64.027603 79.389336
424 4 1  0.000000 60.271503 65.477028 79.272598
425 4 1  0.000000 60.630894 66.760338 79.030342
426 4 1  0.000000 61.141632 66.599770 77.534378
427 4 1  0.000000 61.778191 65.972664 76.306526
428 4 1  0.000000 63.230408 66.333748 76.625000
429 4 1  0.000000 64.156464 65.747749 75.567932
430 4 1  0.000000 65.080315 64.811935 74.922852
431 4 1  0.000000 65.092812 63.229076 74.433990
432 4 1  0.000000 66.498085 63.212566 75.228630
433 4 1  0.000000 66.786064 63.057026 76.785294
434 4 1  0.000000 67.638268 63.316067 77.926392
435 4 1  0.000000 69.241150 63.430645 78.229935
436 4 1  0.000000 68.532875 64.195824 79.367851
437 4 1  0.000000 68.562851 64.575211 81.008720
438 4 1  0.000000 69.257927 65.735558 81.823982
439 4 1  0.000000 69.944977 64.587990 82.466393
440 4 1  0.000000 70.879417 63.517204 82.710312
441 4 1  0.000000 71.888405 62.396122 82.225090
442 4 1  0.000000 72.188614 60.891457 82.942772
443 4 1  0.000000 71.413963 59.615929 83.084999
444 4 1  0.000000 69.857796 59.909946 83.752960
445 4 1  0.000000 69.405518 59.531109 85.051346
446 4 1  0.000000 70.532158 59.778488 85.931190
447 4 1  0.000000 70.138176 60.299606 87.409622
448 4 1  0.000000 70.932549 61.223915 88.306808
449 4 1  0.000000 69.719368 62.181019 87.782364
450 4 1  0.000000 68.394569 62.936676 87.558594
451 4 1  0.000000 68.621948 64.128113 88.591270
452 4 1  0.000000 67.628632 65.303741 87.804596
453 4 1  0.000000 65.951492 65.882828 87.973351
454 4 1  0.000000 65.202919 66.461739 88.973091
455 4 1  0.000000 64.605042 67.095612 87.650604
456 4 1  0.000000 64.033180 67.472290 86.125168
457 4 1  0.000000 64.180527 68.863052 86.018982
458 4 1  0.000000 63.756550 70.210739 85.335403
459 4 1  0.000000 63.748947 71.702202 84.803116
460 4 1  0.000000 62.824947 72.731178 85.287392
461 4 1  0.000000 62.833744 72.356018 83.648895
462 4 1  0.000000 61.992699 72.373772 82.171860
463 4 1  0.000000 60.411736 73.072098 82.034584
464 4 1  0.000000 59.774189 71.648918 82.372879
465 4 1  0.000000 59.494755 70.450615 83.207611
466 4 1  0.000000 59.893322 68.964737 83.830032
467 4 1  0.000000 58.563824 68.667191 84.697289
468 4 1  0.000000 59.502747 67.488388 83.952065
469 4 1  0.000000 60.074924 66.464218 84.989334
470 4 1  0.000000 60.504143 64.962204 85.511230
471 4 1  0.000000 59.944935 64.706551 86.678032
472 4 1  0.000000 59.249660 65.744598 87.587502
473 4 1  0.000000 58.706654 65.305618 88.941704
474 4 1  0.000000 58.997700 66.802109 89.004036
475 4 1  0.000000 57.677578 66.713615 89.471909
476 4 1  0.000000 56.417854 67.569862 89.856117
477 4 1  0.000000 54.981747 67.302872 89.179008
478 4 1  0.000000 53.578663 67.474770 89.588982
479 4 1  0.000000 52.051300 67.793846 89.976944
480 4 1  0.000000 52.261997 66.422539 89.047134
481 4 1  0.000000 51.833168 65.312859 88.275314
482 4 1  0.000000 51.906128 63.950790 87.457962
483 4 1  0.000000 50.386505 64.342102 86.634155
484 4 1  0.000000 48.741871 64.113686 86.743561
485 4 1  0.000000 47.769657 62.809551 87.257446
486 4 1  0.000000 47.961208 64.141983 88.196404
487 4 1  0.000000 47.392017 63.119930 89.405365
488 4 1  0.000000 45.900063 63.720196 89.045853
489 4 1  0.000000 46.190022 64.166115 90.553978
490 4 1  0.000000 47.214272 64.360405 91.648392
491 4 1  0.000000 48.290306 64.806068 92.685570
492 4 1  0.000000 49.352417 65.192741 91.811241
493 4 1  0.000000 50.558567 64.626999 92.395134
494 4 1  0.000000 50.671776 65.484978 93.692924
495 4 1  0.000000 51.058575 66.492943 94.893723
496 4 1  0.000000 50.308891 67.719826 95.138214
497 4 1  0.000000 51.541897 67.932983 96.076393
498 4 1  0.000000 50.553619 68.443008 97.250412
499 4 1  0.000000 51.943123 69.273407 97.803017
500 4 1  0.000000 51.067497 68.256683 98.576385
501 5 1  0.000000 124.585968 90.394974 79.743767
502 5 1  0.000000 122.986374 90.247200 79.540390
503 5 1  0.000000 122.269051 91.052650 78.618500
504 5 1  0.000000 122.712608 91.125153 77.062775
505 5 1  0.000000 122.903008 92.622040 76.422867
506 5 1  0.000000 124.081535 91.824211 75.220543
507 5 1  0.000000 125.584244 91.683304 75.724472
508 5 1  0.000000 126.211250 90.464180 75.365700
509 5 1  0.000000 127.491539 90.889267 76.201904
510 5 1  0.000000 127.709412 90.576370 77.680740
511 5 1  0.000000 128.189545 89.162422 76.714928
512 5 1  0.000000 129.517273 88.388329 76.945641
513 5 1  0.000000 128.948166 87.718353 78.372986
514 5 1  0.000000 127.540710 87.097275 78.840096
515 5 1  0.000000 127.469177 85.685699 77.985687
516 5 1  0.000000 126.802238 84.435310 78.357986
517 5 1  0.000000 125.354362 84.242012 78.251671
518 5 1  0.000000 124.299957 85.365501 78.363731
519 5 1  0.000000 124.168777 84.196632 79.442703
520 5 1  0.000000 123.223907 85.348282 79.763130
521 5 1  0.000000 123.248276 85.728874 81.234810
522 5 1  0.000000 121.852371 86.017525 80.860504
523 5 1  0.000000 120.818489 86.720444 80.208961
524 5 1  0.000000 119.710655 86.753105 79.157272
525 5 1  0.000000 119.663834 85.486229 78.665428
526 5 1  0.000000 118.013161 85.751228 78.237755
527 5 1  0.000000 116.771416 86.539787 78.808945
528 5 1  0.000000 115.998428 86.831421 80.229965
529 5 1  0.000000 115.404099 85.450653 80.540810
530 5 1  0.000000 115.341888 84.911507 81.986824
531 5 1  0.000000 114.940994 83.807579 81.196564
532 5 1  0.000000 115.796997 82.746742 81.429893
533 5 1  0.000000 115.479591 81.388817 81.024872
534 5 1  0.000000 114.833321 81.246429 82.433731
535 5 1  0.000000 113.796867 80.287842 81.904839
536 5 1  0.000000 112.440926 79.757141 82.636826
537 5 1  0.000000 110.943855 79.847420 83.091965
538 5 1  0.000000 110.808228 78.463013 82.534714
539 5 1  0.000000 109.675041 78.174149 81.893181
540 5 1  0.000000 108.303482 78.742203 82.014732
541 5 1  0.000000 107.072701 78.868469 81.496033
542 5 1  0.000000 106.089180 77.675606 81.452148
543 5 1  0.000000 105.876976 79.137756 81.952301
544 5 1  0.000000 104.457695 78.677437 81.790665
545 5 1  0.000000 103.747467 77.242531 82.445709
546 5 1  0.000000 102.470924 77.525574 83.272598
547 5 1  0.000000 101.648933 77.114899 82.218781
548 5 1  0.000000 100.490211 76.649635 83.002800
549 5 1  0.000000 100.142845 77.965317 83.901649
550 5 1  0.000000 98.925529 78.871994 84.054749
551 5 1  0.000000 99.749512 79.487946 85.113533
552 5 1  0.000000 98.511131 80.097710 85.326843
553 5 1  0.000000 97.247749 79.262398 85.667282
554 5 1  0.000000 95.593735 79.609467 86.168579
555 5 1  0.000000 94.470802 78.567894 85.769936
556 5 1  0.000000 93.759682 79.893707 86.019875
557 5 1  0.000000 92.854668 81.137871 86.143234
558 5 1  0.000000 92.704681 81.235878 87.733391
559 5 1  0.000000 91.131996 81.542511 88.097458
560 5 1  0.000000 90.284790 82.498810 86.994354
561 5 1  0.000000 90.656761 84.106667 86.549889
562 5 1  0.000000 89.833931 84.005615 87.834991
563 5 1  0.000000 88.802925 84.783745 87.923294
564 5 1  0.000000 87.718941 86.115425 87.813194
565 5 1  0.000000 87.158051 84.713913 87.317398
566 5 1  0.000000 86.088379 83.627808 87.612915
567 5 1  0.000000 84.881767 84.171181 88.437157
568 5 1  0.000000 83.455086 83.559074 88.451096
569 5 1  0.000000 81.809708 83.803024 88.616280
570 5 1  0.000000 82.176247 84.443062 87.315636
571 5 1  0.000000 81.805161 83.634552 86.106667
572 5 1  0.000000 81.382492 84.890862 85.538620
573 5 1  0.000000 80.651161 84.050255 84.505844
574 5 1  0.000000 80.136589 82.703384 84.128105
575 5 1  0.000000 78.965263 81.474319 84.342247
576 5 1  0.000000 78.055855 82.696548 83.976044
577 5 1  0.000000 77.237892 84.096733 83.761505
578 5 1  0.000000 76.142967 85.275894 82.778000
579 5 1  0.000000 74.703842 85.388733 81.656960
580 5 1  0.000000 74.249847 86.178413 82.777832
581 5 1  0.000000 73.138954 85.270721 82.636826
582 5 1  0.000000 71.731300 85.199432 82.640411
583 5 1  0.000000 70.358292 85.282494 83.365891
584 5 1  0.000000 70.064232 86.154602 84.605637
585 5 1  0.000000 70.310982 85.735069 86.121582
586 5 1  0.000000 68.939735 85.817139 87.030884
587 5 1  0.000000 69.250641 87.333923 86.951042
588 5 1  0.000000 68.599159 88.679268 86.725113
589 5 1  0.000000 67.478127 88.335831 87.574554
590 5 1  0.000000 66.609741 89.260811 88.402550
591 5 1  0.000000 65.257607 88.539146 88.187531
592 5 1  0.000000 64.242416 89.365059 87.626434
593 5 1  0.000000 63.144867 88.346916 88.016228
594 5 1  0.000000 62.228981 89.000389 89.415344
595 5 1  0.000000 61.196316 89.505432 90.366440
596 5 1  0.000000 59.860722 88.825851 90.915070
597 5 1  0.000000 58.424252 89.485428 90.254738
598 5 1  0.000000 58.616776 89.268372 88.801239
599 5 1  0.000000 57.002369 89.389374 88.367409
600 5 1  0.000000 55.528004 90.270233 88.406769
601 6 1  0.000000 101.689003 118.956406 76.206665
602 6 1  0.000000 100.405334 118.155602 76.842743
603 6 1  0.000000 99.767403 116.701118 76.836143
604 6 1  0.000000 99.669708 117.083656 78.269630
605 6 1  0.000000 98.334656 117.688797 78.096260
606 6 1  0.000000 97.400810 118.248436 79.313179
607 6 1  0.000000 96.742943 118.979645 78.292854
608 6 1  0.000000 95.432846 118.189186 78.980545
609 6 1  0.000000 93.903381 117.757988 79.146736
610 6 1  0.000000 93.221466 117.065735 80.536339
611 6 1  0.000000 93.422485 115.632668 80.726974
612 6 1  0.000000 91.893295 115.146431 80.577385
613 6 1  0.000000 91.538872 113.967606 79.545990
614 6 1  0.000000 91.236671 114.104439 77.981316