Created with TaichiMD

1000 atoms
990 bonds
  0 angles
  0 dihedrals
  0 impropers

1 atom types
1 bond types
0 angle types
0 dihedral types
0 improper types

-80.00000  80.00000 xlo xhi
-80.00000  80.00000 ylo yhi
-80.00000  80.00000 zlo zhi

Masses

1 10.0000

Atoms

  1 0 1  0.000000 68.233673  0.658096 79.967812
  2 0 1  0.000000 70.404831  0.395983 79.315399
  3 0 1  0.000000 71.461403  1.128922 78.641212
  4 0 1  0.000000 72.507965 -0.176631 79.937088
  5 0 1  0.000000 74.173775 -0.218751 80.932281
  6 0 1  0.000000 75.182129 -1.311276 81.783577
  7 0 1  0.000000 76.913918 -0.673598 82.161713
  8 0 1  0.000000 75.838219 -1.104626 83.411957
  9 0 1  0.000000 76.632828  0.470048 83.043617
 10 0 1  0.000000 78.288132  0.327382 83.666985
 11 0 1  0.000000 79.964180 -0.666656 84.428329
 12 0 1  0.000000 81.371765 -0.933794 84.957352
 13 0 1  0.000000 82.709366 -1.711246 85.830208
 14 0 1  0.000000 85.031578 -1.081583 85.680191
 15 0 1  0.000000 86.523476 -0.069446 85.669342
 16 0 1  0.000000 87.699219  0.959913 84.978050
 17 0 1  0.000000 88.307777  2.545850 83.827141
 18 0 1  0.000000 89.476570  1.875820 83.434090
 19 0 1  0.000000 89.730675  3.730136 82.646523
 20 0 1  0.000000 91.108429  3.919856 81.684319
 21 0 1  0.000000 90.876953  5.298265 81.782806
 22 0 1  0.000000 89.706139  6.011112 80.986229
 23 0 1  0.000000 88.185165  6.080934 80.453613
 24 0 1  0.000000 87.828743  8.141319 81.392548
 25 0 1  0.000000 86.692467  8.489367 80.167503
 26 0 1  0.000000 85.745346  7.812711 79.017937
 27 0 1  0.000000 85.015251  8.540458 78.295486
 28 0 1  0.000000 85.208344  8.665495 76.396484
 29 0 1  0.000000 84.492188  9.870715 75.228073
 30 0 1  0.000000 83.688988 11.154603 75.331802
 31 0 1  0.000000 83.864876 10.099902 73.867645
 32 0 1  0.000000 83.595955 10.669598 72.756744
 33 0 1  0.000000 83.020355  8.366637 72.773422
 34 0 1  0.000000 83.348541  7.236351 72.009544
 35 0 1  0.000000 84.904785  7.303584 71.106552
 36 0 1  0.000000 84.560249  6.709844 69.725609
 37 0 1  0.000000 85.739159  5.973049 69.564362
 38 0 1  0.000000 85.318855  7.586148 68.637108
 39 0 1  0.000000 85.705772  9.057323 68.283684
 40 0 1  0.000000 85.503860 10.869129 67.331802
 41 0 1  0.000000 85.985222 11.468019 65.998909
 42 0 1  0.000000 86.416885 12.117193 64.946136
 43 0 1  0.000000 87.883713 12.095119 64.134659
 44 0 1  0.000000 87.922180 13.045576 62.424675
 45 0 1  0.000000 89.081528 14.108258 61.530628
 46 0 1  0.000000 88.922585 13.256741 61.004848
 47 0 1  0.000000 89.782753 14.586751 62.017738
 48 0 1  0.000000 88.550209 15.955353 61.870518
 49 0 1  0.000000 89.167274 17.007835 60.462860
 50 0 1  0.000000 89.409660 17.699232 58.728855
 51 0 1  0.000000 89.179344 19.127562 58.370388
 52 0 1  0.000000 88.368576 20.212677 58.297985
 53 0 1  0.000000 87.772285 19.604954 59.407543
 54 0 1  0.000000 86.063202 20.402880 58.655479
 55 0 1  0.000000 84.426086 20.783348 57.976524
 56 0 1  0.000000 82.871422 19.949808 58.443329
 57 0 1  0.000000 81.319344 19.395279 58.036980
 58 0 1  0.000000 80.304291 18.756512 56.933525
 59 0 1  0.000000 79.535950 19.231211 55.357853
 60 0 1  0.000000 77.998024 18.994877 55.078842
 61 0 1  0.000000 77.184845 18.522903 54.344913
 62 0 1  0.000000 76.712959 20.114672 53.558338
 63 0 1  0.000000 77.861847 20.566278 52.163380
 64 0 1  0.000000 78.828468 19.261543 51.726608
 65 0 1  0.000000 80.807953 19.597839 50.986847
 66 0 1  0.000000 82.221909 20.082787 49.923668
 67 0 1  0.000000 80.474113 21.251907 49.294498
 68 0 1  0.000000 78.336037 21.464102 48.142509
 69 0 1  0.000000 76.769363 22.515387 48.530132
 70 0 1  0.000000 76.083916 23.685667 49.490543
 71 0 1  0.000000 76.728195 23.421206 51.095539
 72 0 1  0.000000 76.845642 24.800255 50.332043
 73 0 1  0.000000 75.514320 25.174309 51.390888
 74 0 1  0.000000 74.346748 25.522652 52.132820
 75 0 1  0.000000 73.280380 25.090008 52.903236
 76 0 1  0.000000 73.702278 26.857998 53.916126
 77 0 1  0.000000 73.966972 27.833950 52.970940
 78 0 1  0.000000 73.440918 29.597477 52.705929
 79 0 1  0.000000 74.076675 31.035892 53.406055
 80 0 1  0.000000 74.221313 32.156704 53.182747
 81 0 1  0.000000 74.728851 33.855576 53.376709
 82 0 1  0.000000 76.218079 33.102695 53.674759
 83 0 1  0.000000 76.917107 33.001862 51.914097
 84 0 1  0.000000 78.421791 32.035744 52.294178
 85 0 1  0.000000 77.748833 30.755857 53.374443
 86 0 1  0.000000 78.385643 30.712749 51.665264
 87 0 1  0.000000 79.256477 30.175030 50.151638
 88 0 1  0.000000 78.931465 31.952991 48.931843
 89 0 1  0.000000 80.044640 33.123817 48.141968
 90 0 1  0.000000 79.576157 32.339073 47.904182
 91 0 1  0.000000 80.736275 32.638786 46.588497
 92 0 1  0.000000 80.037468 33.243134 45.492424
 93 0 1  0.000000 81.596146 33.869080 43.963047
 94 0 1  0.000000 82.484261 33.158600 43.520733
 95 0 1  0.000000 81.863304 33.083622 41.255730
 96 0 1  0.000000 81.814178 31.660303 41.955238
 97 0 1  0.000000 81.524467 30.266026 43.208561
 98 0 1  0.000000 81.146210 30.997602 41.849510
 99 0 1  0.000000 80.500252 30.098183 40.926773
100 0 1  0.000000 79.420174 29.176683 40.488792
101 1 1  0.000000 68.688858 17.391068 73.373688
102 1 1  0.000000 68.406624 17.162735 74.741951
103 1 1  0.000000 69.389992 16.696350 75.952988
104 1 1  0.000000 70.429207 17.008717 74.521645
105 1 1  0.000000 71.943993 16.614902 74.718269
106 1 1  0.000000 73.502625 16.247591 73.551720
107 1 1  0.000000 75.009262 15.946821 74.254066
108 1 1  0.000000 76.573524 17.139881 74.859215
109 1 1  0.000000 77.267662 17.107428 76.600533
110 1 1  0.000000 77.765152 18.504246 75.772606
111 1 1  0.000000 79.642845 18.627151 77.042130
112 1 1  0.000000 78.136902 20.032524 76.221397
113 1 1  0.000000 78.582184 20.878916 75.825401
114 1 1  0.000000 78.345184 21.159439 77.497025
115 1 1  0.000000 79.396660 22.571661 78.433960
116 1 1  0.000000 80.024323 23.377354 77.051018
117 1 1  0.000000 81.344559 24.115135 77.717476
118 1 1  0.000000 79.932930 24.209150 79.096596
119 1 1  0.000000 80.090797 25.439962 79.344742
120 1 1  0.000000 79.830681 26.509323 80.213875
121 1 1  0.000000 80.392365 27.043530 81.163925
122 1 1  0.000000 82.663757 27.197327 80.826439
123 1 1  0.000000 82.202805 26.466837 81.827118
124 1 1  0.000000 82.178665 25.328758 82.701965
125 1 1  0.000000 82.091995 23.903950 83.419914
126 1 1  0.000000 82.010750 23.969995 84.894493
127 1 1  0.000000 81.767487 25.151974 84.827682
128 1 1  0.000000 81.507866 24.243198 86.239601
129 1 1  0.000000 82.083160 23.202539 87.332123
130 1 1  0.000000 81.837616 23.343946 88.746719
131 1 1  0.000000 82.804184 22.564550 89.580376
132 1 1  0.000000 83.730782 23.392414 91.424698
133 1 1  0.000000 83.054138 24.926521 91.692245
134 1 1  0.000000 83.031975 25.132488 93.175232
135 1 1  0.000000 83.621841 24.502125 94.249962
136 1 1  0.000000 82.884445 26.322433 94.385437
137 1 1  0.000000 81.806725 27.927864 94.539040
138 1 1  0.000000 80.297615 28.024448 95.289215
139 1 1  0.000000 80.833382 30.072363 95.502159
140 1 1  0.000000 80.080177 30.590923 96.659134
141 1 1  0.000000 78.751411 30.722466 98.069740
142 1 1  0.000000 78.038292 30.954632 99.712181
143 1 1  0.000000 75.809036 31.251862 99.580070
144 1 1  0.000000 75.415131 31.871660 100.640030
145 1 1  0.000000 74.573624 30.644112 101.248932
146 1 1  0.000000 73.963234 31.280336 100.418472
147 1 1  0.000000 72.657333 30.611031 99.469040
148 1 1  0.000000 70.919479 30.616760 98.610023
149 1 1  0.000000 70.228477 28.726513 98.118629
150 1 1  0.000000 69.368645 27.477997 98.898438
151 1 1  0.000000 69.673225 26.224133 100.018509
152 1 1  0.000000 69.163544 25.283028 100.658012
153 1 1  0.000000 67.881439 24.870359 101.203415
154 1 1  0.000000 67.023926 26.154736 101.400833
155 1 1  0.000000 66.655479 26.231543 103.065178
156 1 1  0.000000 65.954224 24.791300 103.705948
157 1 1  0.000000 64.780991 23.159529 103.549248
158 1 1  0.000000 62.933578 23.411276 103.731300
159 1 1  0.000000 62.239597 22.355879 103.033150
160 1 1  0.000000 61.241043 23.259380 103.566124
161 1 1  0.000000 60.569294 21.222588 103.394745
162 1 1  0.000000 60.627457 20.906507 105.410713
163 1 1  0.000000 60.247189 21.885273 106.869812
164 1 1  0.000000 59.953785 20.005407 107.167458
165 1 1  0.000000 59.613441 18.690454 108.271599
166 1 1  0.000000 58.626762 18.413425 109.939194
167 1 1  0.000000 57.423515 17.411161 109.932228
168 1 1  0.000000 56.584793 18.915714 109.315643
169 1 1  0.000000 56.366116 18.716908 110.794617
170 1 1  0.000000 56.909374 18.438099 112.569801
171 1 1  0.000000 55.424141 18.829971 111.991982
172 1 1  0.000000 54.425446 18.023256 112.151840
173 1 1  0.000000 53.067783 18.694979 111.873718
174 1 1  0.000000 51.078678 18.902372 111.544579
175 1 1  0.000000 51.292912 18.699751 109.471214
176 1 1  0.000000 49.752769 19.957468 109.157959
177 1 1  0.000000 48.927879 19.557707 111.627762
178 1 1  0.000000 47.676708 18.613846 112.106422
179 1 1  0.000000 46.423817 20.356497 112.190865
180 1 1  0.000000 45.655228 20.934536 110.910004
181 1 1  0.000000 45.218304 22.167566 110.929573
182 1 1  0.000000 43.331604 21.438467 110.700165
183 1 1  0.000000 41.679729 21.508413 111.472412
184 1 1  0.000000 41.559986 20.026257 112.281120
185 1 1  0.000000 40.377834 19.381781 112.351280
186 1 1  0.000000 41.021240 19.434479 113.980911
187 1 1  0.000000 39.780388 19.477272 115.564835
188 1 1  0.000000 38.422932 19.609299 114.911125
189 1 1  0.000000 37.296764 20.259457 116.151367
190 1 1  0.000000 36.456173 19.625586 114.821068
191 1 1  0.000000 36.732685 18.347857 113.343513
192 1 1  0.000000 36.332565 17.632360 111.715172
193 1 1  0.000000 35.280972 17.546196 112.980377
194 1 1  0.000000 35.416161 16.872421 111.569138
195 1 1  0.000000 34.224838 16.444494 110.660576
196 1 1  0.000000 32.920864 16.618162 110.245064
197 1 1  0.000000 32.601967 17.749842 109.837082
198 1 1  0.000000 30.910606 18.200304 109.111664
199 1 1  0.000000 31.689604 19.359154 108.014244
200 1 1  0.000000 32.084358 18.753000 106.449966
201 2 1  0.000000 71.118172 59.020760 82.744019
202 2 1  0.000000 69.148254 58.590950 82.669197
203 2 1  0.000000 70.434525 58.461990 82.933716
204 2 1  0.000000 69.547974 56.936291 82.881424
205 2 1  0.000000 68.323418 56.995388 82.238899
206 2 1  0.000000 67.590508 55.226387 82.492722
207 2 1  0.000000 67.317154 55.162071 83.595139
208 2 1  0.000000 68.245285 53.508713 84.175797
209 2 1  0.000000 69.457581 52.926697 84.466553
210 2 1  0.000000 68.175064 51.998730 83.622162
211 2 1  0.000000 67.224503 49.916092 83.377106
212 2 1  0.000000 67.267967 48.114883 82.656883
213 2 1  0.000000 67.823860 47.077766 82.328163
214 2 1  0.000000 69.245163 46.147900 81.874458
215 2 1  0.000000 69.708359 47.485897 80.399086
216 2 1  0.000000 70.253288 48.675880 79.158989
217 2 1  0.000000 68.741127 49.685349 77.568695
218 2 1  0.000000 69.057594 51.211380 77.753136
219 2 1  0.000000 68.512794 52.693951 76.900826
220 2 1  0.000000 69.685097 52.178669 75.646065
221 2 1  0.000000 71.014091 50.751068 74.948997
222 2 1  0.000000 70.546501 50.929401 73.423004
223 2 1  0.000000 71.442917 51.942760 71.271477
224 2 1  0.000000 70.750763 51.033138 69.896988
225 2 1  0.000000 68.862953 50.933292 69.208420
226 2 1  0.000000 67.523315 51.256504 68.105988
227 2 1  0.000000 67.047997 53.631222 67.719589
228 2 1  0.000000 67.857300 53.701313 66.703644
229 2 1  0.000000 69.099808 53.630051 66.033722
230 2 1  0.000000 69.812096 51.814423 65.271858
231 2 1  0.000000 70.681473 50.521446 65.194160
232 2 1  0.000000 69.037125 50.553848 64.433731
233 2 1  0.000000 68.605141 50.586700 63.242092
234 2 1  0.000000 66.925682 50.772114 62.702503
235 2 1  0.000000 66.467781 49.346733 61.744385
236 2 1  0.000000 65.861008 48.276833 61.163086
237 2 1  0.000000 64.960258 47.681332 62.120399
238 2 1  0.000000 64.133827 48.291317 64.056625
239 2 1  0.000000 63.143742 46.174412 65.255539
240 2 1  0.000000 62.266380 45.786186 64.988098
241 2 1  0.000000 62.218437 44.238079 64.266319
242 2 1  0.000000 61.094841 44.477818 63.471031
243 2 1  0.000000 60.448956 44.795116 65.206055
244 2 1  0.000000 60.300144 42.872246 64.816360
245 2 1  0.000000 60.280140 41.235458 65.000740
246 2 1  0.000000 61.252659 40.257591 66.736572
247 2 1  0.000000 62.034401 39.309834 68.203461
248 2 1  0.000000 61.081512 39.096191 69.199265
249 2 1  0.000000 61.791733 38.139290 70.238358
250 2 1  0.000000 60.105896 38.931274 70.397224
251 2 1  0.000000 59.701866 40.344646 71.133163
252 2 1  0.000000 59.005219 40.123833 72.592766
253 2 1  0.000000 58.864086 38.051491 71.657814
254 2 1  0.000000 58.834332 37.094376 73.311279
255 2 1  0.000000 59.396374 37.285511 74.807243
256 2 1  0.000000 59.333809 38.455212 76.540886
257 2 1  0.000000 60.708313 39.586372 76.681000
258 2 1  0.000000 61.893749 40.772018 77.973259
259 2 1  0.000000 62.495285 39.446369 79.244682
260 2 1  0.000000 62.547722 38.723900 80.429466
261 2 1  0.000000 63.167664 36.827713 80.994293
262 2 1  0.000000 64.681892 37.273449 80.390160
263 2 1  0.000000 66.231735 36.570015 80.874435
264 2 1  0.000000 68.036041 36.627220 81.017410
265 2 1  0.000000 67.399979 35.275703 81.950905
266 2 1  0.000000 67.735420 36.781693 83.002983
267 2 1  0.000000 68.537109 36.128353 84.331291
268 2 1  0.000000 70.091896 35.834435 83.619270
269 2 1  0.000000 71.760254 34.877209 82.655647
270 2 1  0.000000 72.876236 36.883575 84.051636
271 2 1  0.000000 71.854752 37.530983 84.142349
272 2 1  0.000000 72.550056 39.532650 83.923676
273 2 1  0.000000 74.050453 38.658237 84.172951
274 2 1  0.000000 75.109337 40.157448 84.932526
275 2 1  0.000000 76.141815 41.403576 84.242424
276 2 1  0.000000 77.299736 42.532818 85.053497
277 2 1  0.000000 78.919380 43.098995 85.508850
278 2 1  0.000000 79.085968 44.563175 86.834572
279 2 1  0.000000 80.910622 44.745388 88.315338
280 2 1  0.000000 80.790581 46.485691 88.616524
281 2 1  0.000000 82.559044 45.973511 88.249748
282 2 1  0.000000 83.125931 45.168583 89.580391
283 2 1  0.000000 83.608246 46.199276 88.621521
284 2 1  0.000000 83.956306 47.402977 89.892082
285 2 1  0.000000 83.836937 48.577213 91.537971
286 2 1  0.000000 84.437050 49.617855 92.353600
287 2 1  0.000000 84.319153 49.046944 93.406555
288 2 1  0.000000 83.220070 47.944569 94.873108
289 2 1  0.000000 84.210754 46.957119 95.676239
290 2 1  0.000000 84.161659 46.219189 97.331215
291 2 1  0.000000 83.345573 44.470577 95.987473
292 2 1  0.000000 83.171997 44.067234 97.863670
293 2 1  0.000000 82.937630 43.477268 99.307083
294 2 1  0.000000 83.497185 41.635956 99.943169
295 2 1  0.000000 85.165054 41.190208 99.154938
296 2 1  0.000000 85.515030 39.955978 100.163826
297 2 1  0.000000 85.651215 39.246384 102.074394
298 2 1  0.000000 85.478783 37.773804 102.293159
299 2 1  0.000000 86.483162 36.582516 102.667641
300 2 1  0.000000 87.183807 36.294281 100.984772
301 3 1  0.000000 72.509377 65.050407 99.676254
302 3 1  0.000000 72.985985 65.341805 98.077888
303 3 1  0.000000 74.781136 65.140030 98.419281
304 3 1  0.000000 76.372635 65.866547 98.655106
305 3 1  0.000000 77.067802 67.287682 98.295616
306 3 1  0.000000 76.636505 68.223480 99.706139
307 3 1  0.000000 77.776154 67.656471 98.632278
308 3 1  0.000000 77.958710 69.165283 99.807335
309 3 1  0.000000 78.130096 68.374092 100.679382
310 3 1  0.000000 79.154518 69.353088 101.111832
311 3 1  0.000000 79.338165 70.193054 102.181503
312 3 1  0.000000 78.651848 71.779083 102.424927
313 3 1  0.000000 80.302124 71.138969 102.033913
314 3 1  0.000000 82.153313 71.844048 102.547264
315 3 1  0.000000 83.506783 70.950409 103.330605
316 3 1  0.000000 84.963356 71.734985 101.956619
317 3 1  0.000000 85.655807 70.788963 100.990120
318 3 1  0.000000 87.550507 70.855095 101.211304
319 3 1  0.000000 88.363464 70.299538 99.995445
320 3 1  0.000000 89.454933 70.969704 99.093666
321 3 1  0.000000 91.236275 71.154633 101.025925
322 3 1  0.000000 91.256073 70.534340 99.456291
323 3 1  0.000000 90.892105 69.707031 98.401108
324 3 1  0.000000 91.891945 69.031860 98.037567
325 3 1  0.000000 92.759666 67.804893 97.480865
326 3 1  0.000000 92.542191 66.522835 95.371391
327 3 1  0.000000 93.449158 67.402237 94.295235
328 3 1  0.000000 94.595894 68.776085 93.983299
329 3 1  0.000000 95.945999 69.623695 92.897171
330 3 1  0.000000 96.206627 69.130280 92.154686
331 3 1  0.000000 96.585022 68.955055 90.355057
332 3 1  0.000000 95.657791 68.680885 88.815201
333 3 1  0.000000 96.384758 69.329773 87.540253
334 3 1  0.000000 96.022087 69.454926 86.372597
335 3 1  0.000000 95.385986 68.651505 85.491753
336 3 1  0.000000 96.257935 69.277611 83.799347
337 3 1  0.000000 94.854683 68.358688 84.138161
338 3 1  0.000000 93.831352 69.845802 83.683052
339 3 1  0.000000 92.193886 70.161087 84.306503
340 3 1  0.000000 91.431938 68.943108 82.849876
341 3 1  0.000000 90.384041 68.885223 82.722435
342 3 1  0.000000 89.610878 68.616982 81.025139
343 3 1  0.000000 88.134048 69.409332 79.886002
344 3 1  0.000000 87.524734 68.175613 80.011703
345 3 1  0.000000 85.888374 68.560806 79.646065
346 3 1  0.000000 85.603378 69.375725 77.888359
347 3 1  0.000000 84.934341 68.705833 77.066521
348 3 1  0.000000 83.527077 67.979759 76.416939
349 3 1  0.000000 82.837906 68.213661 75.113457
350 3 1  0.000000 81.947220 67.640205 73.914589
351 3 1  0.000000 80.551308 67.327927 72.662506
352 3 1  0.000000 80.695442 67.617851 71.048180
353 3 1  0.000000 78.585632 67.588951 70.237137
354 3 1  0.000000 76.685555 67.142853 69.504150
355 3 1  0.000000 75.266655 65.617714 68.623283
356 3 1  0.000000 74.048256 64.804733 68.390045
357 3 1  0.000000 74.644501 63.686268 68.923302
358 3 1  0.000000 73.549385 62.285412 68.153641
359 3 1  0.000000 72.888466 62.131927 66.611763
360 3 1  0.000000 71.534195 63.246891 66.441299
361 3 1  0.000000 71.055412 64.864647 66.837921
362 3 1  0.000000 69.701653 65.966721 66.875763
363 3 1  0.000000 68.095779 66.480576 65.867416
364 3 1  0.000000 66.614174 66.709778 65.930183
365 3 1  0.000000 64.699554 67.069290 66.352173
366 3 1  0.000000 63.063446 68.340462 66.351509
367 3 1  0.000000 62.493431 66.808113 66.173271
368 3 1  0.000000 60.978317 67.296089 65.942818
369 3 1  0.000000 59.606491 67.659904 64.539429
370 3 1  0.000000 58.844696 67.335724 63.625107
371 3 1  0.000000 57.737759 68.345512 63.355541
372 3 1  0.000000 55.908730 68.143036 62.826900
373 3 1  0.000000 55.460232 67.507103 61.357166
374 3 1  0.000000 53.871017 67.023949 60.495506
375 3 1  0.000000 53.961040 68.512009 59.327148
376 3 1  0.000000 52.803364 69.489120 59.804249
377 3 1  0.000000 51.267948 68.851334 59.303474
378 3 1  0.000000 50.705193 69.068008 60.660137
379 3 1  0.000000 49.899479 68.196999 60.245567
380 3 1  0.000000 48.914459 69.208229 61.311665
381 3 1  0.000000 49.388409 68.398293 62.760689
382 3 1  0.000000 49.749695 67.911713 64.311302
383 3 1  0.000000 50.504505 68.793121 65.702995
384 3 1  0.000000 51.060059 67.261459 66.388657
385 3 1  0.000000 50.326096 65.969109 67.271538
386 3 1  0.000000 51.180031 67.264908 68.257225
387 3 1  0.000000 49.128067 67.586746 68.523712
388 3 1  0.000000 49.897320 67.845383 69.945061
389 3 1  0.000000 49.165180 68.545532 69.043365
390 3 1  0.000000 48.813217 69.871925 69.416908
391 3 1  0.000000 47.695667 71.082657 70.335617
392 3 1  0.000000 48.504345 70.827354 68.402420
393 3 1  0.000000 49.889233 71.887161 69.205147
394 3 1  0.000000 50.873150 72.069336 70.551781
395 3 1  0.000000 51.751362 73.509804 70.522781
396 3 1  0.000000 51.512466 75.029907 70.859573
397 3 1  0.000000 51.959213 74.538208 72.295647
398 3 1  0.000000 52.298279 75.394783 73.659767
399 3 1  0.000000 52.912704 76.257149 74.626343
400 3 1  0.000000 52.529663 77.818657 73.808601
401 4 1  0.000000 106.712013 65.858086 80.077858
402 4 1  0.000000 105.836754 66.776421 81.354218
403 4 1  0.000000 104.610977 66.954681 80.930153
404 4 1  0.000000 102.967628 67.024742 80.396523
405 4 1  0.000000 102.256577 68.797211 80.160156
406 4 1  0.000000 102.995331 69.155586 78.035187
407 4 1  0.000000 103.099960 69.126022 76.342537
408 4 1  0.000000 103.420624 70.415833 76.748749
409 4 1  0.000000 102.331413 70.430962 75.244644
410 4 1  0.000000 100.973534 71.104347 74.302971
411 4 1  0.000000 100.006836 72.425430 75.903900
412 4 1  0.000000 100.009354 72.109489 77.286064
413 4 1  0.000000 101.651627 72.717308 77.856064
414 4 1  0.000000 100.742050 73.204422 78.208122
415 4 1  0.000000 101.766777 72.359970 79.416771
416 4 1  0.000000 100.609978 72.931778 80.665085
417 4 1  0.000000 100.064842 71.496773 81.385803
418 4 1  0.000000 98.890915 70.499481 80.770210
419 4 1  0.000000 97.747375 71.127739 79.796516
420 4 1  0.000000 97.250084 70.950783 81.218109
421 4 1  0.000000 96.249763 70.180832 80.393448
422 4 1  0.000000 94.442970 71.025467 80.553185
423 4 1  0.000000 92.540146 71.203384 80.633354
424 4 1  0.000000 93.072945 72.223145 81.854286
425 4 1  0.000000 92.714203 73.379433 82.178246
426 4 1  0.000000 91.277054 74.694412 83.401566
427 4 1  0.000000 90.467209 74.493774 84.501320
428 4 1  0.000000 89.438103 74.340210 85.442589
429 4 1  0.000000 89.102669 75.325859 86.803856
430 4 1  0.000000 87.618652 75.461510 87.299492
431 4 1  0.000000 87.645897 75.562576 85.734970
432 4 1  0.000000 86.421875 74.535423 86.785355
433 4 1  0.000000 84.895279 74.632202 85.579109
434 4 1  0.000000 83.247566 75.589355 84.670670
435 4 1  0.000000 82.517838 74.084686 85.444588
436 4 1  0.000000 83.134079 76.185272 86.030365
437 4 1  0.000000 81.855171 75.410561 86.718216
438 4 1  0.000000 80.469666 74.207291 87.592972
439 4 1  0.000000 79.489861 74.054268 88.480629
440 4 1  0.000000 78.301949 73.019409 87.341026
441 4 1  0.000000 77.111893 72.117538 88.821815
442 4 1  0.000000 77.440369 72.978592 89.823486
443 4 1  0.000000 75.956245 73.989624 89.739288
444 4 1  0.000000 74.437271 73.417839 90.000389
445 4 1  0.000000 73.123314 73.193558 89.465919
446 4 1  0.000000 71.596863 74.460571 89.870415
447 4 1  0.000000 71.974281 74.214371 91.191460
448 4 1  0.000000 71.016975 74.865807 91.943756
449 4 1  0.000000 69.280556 74.913300 92.075325
450 4 1  0.000000 68.201286 74.219002 93.869659
451 4 1  0.000000 66.717674 72.982101 93.888062
452 4 1  0.000000 66.950409 73.536415 94.622490
453 4 1  0.000000 65.601387 74.433304 96.270676
454 4 1  0.000000 64.546112 74.457321 96.968163
455 4 1  0.000000 63.309734 74.450729 98.264374
456 4 1  0.000000 63.335468 73.231400 98.481529
457 4 1  0.000000 63.589844 74.347939 99.059456
458 4 1  0.000000 63.620457 74.481064 100.328758
459 4 1  0.000000 62.780155 74.073982 102.014191
460 4 1  0.000000 61.659706 74.866661 102.303528
461 4 1  0.000000 61.882607 76.398720 102.190041
462 4 1  0.000000 60.859905 77.200104 103.207222
463 4 1  0.000000 60.336426 77.917076 104.228996
464 4 1  0.000000 60.072048 77.336403 105.178658
465 4 1  0.000000 59.463337 75.918221 105.723206
466 4 1  0.000000 57.800644 75.903549 104.910873
467 4 1  0.000000 56.975555 74.228973 105.073265
468 4 1  0.000000 56.676239 73.797234 106.593636
469 4 1  0.000000 57.083591 72.293327 108.159981
470 4 1  0.000000 58.666626 72.044624 108.178917
471 4 1  0.000000 59.235104 73.087868 108.559082
472 4 1  0.000000 60.254459 74.563690 109.218239
473 4 1  0.000000 60.035812 74.638390 110.795715
474 4 1  0.000000 59.018375 74.192200 112.176987
475 4 1  0.000000 59.151096 72.875847 111.752800
476 4 1  0.000000 58.749882 71.364883 112.250999
477 4 1  0.000000 59.355022 70.597855 113.579124
478 4 1  0.000000 60.143814 69.821381 114.588333
479 4 1  0.000000 59.999302 68.648972 113.958801
480 4 1  0.000000 59.405525 67.294174 114.445183
481 4 1  0.000000 57.834602 67.718636 115.356102
482 4 1  0.000000 56.744614 69.053871 115.246223
483 4 1  0.000000 56.519402 68.634918 116.799522
484 4 1  0.000000 55.544624 69.092247 118.539383
485 4 1  0.000000 55.010696 70.722786 119.036972
486 4 1  0.000000 54.482021 71.879982 118.842422
487 4 1  0.000000 53.313629 71.949951 118.360550
488 4 1  0.000000 53.656883 73.588684 118.450577
489 4 1  0.000000 52.499809 74.470688 119.053108
490 4 1  0.000000 51.579395 74.438087 117.881416
491 4 1  0.000000 50.952221 76.516884 118.620003
492 4 1  0.000000 49.814861 77.283676 120.137291
493 4 1  0.000000 48.257256 78.498260 120.005264
494 4 1  0.000000 47.005814 77.583519 119.611092
495 4 1  0.000000 46.839481 76.151627 119.704391
496 4 1  0.000000 45.700748 75.486565 119.060806
497 4 1  0.000000 45.233093 74.247581 118.084145
498 4 1  0.000000 44.345417 74.023262 118.701363
499 4 1  0.000000 43.518368 74.513840 119.074425
500 4 1  0.000000 42.541344 73.814262 118.788414
501 5 1  0.000000 154.499435 91.719002 42.904583
502 5 1  0.000000 153.683624 91.613899 44.029240
503 5 1  0.000000 152.503433 91.991150 44.171570
504 5 1  0.000000 150.782913 92.255638 44.126896
505 5 1  0.000000 149.489655 91.399002 43.619614
506 5 1  0.000000 150.231857 92.646835 42.806759
507 5 1  0.000000 149.178162 93.192780 44.769302
508 5 1  0.000000 148.188766 92.118553 45.692539
509 5 1  0.000000 146.694824 92.518341 45.810329
510 5 1  0.000000 145.276428 92.090950 46.568428
511 5 1  0.000000 145.634445 90.948967 48.040668
512 5 1  0.000000 145.646774 90.386665 50.061329
513 5 1  0.000000 145.558945 89.183952 51.365246
514 5 1  0.000000 145.743317 90.824165 52.558460
515 5 1  0.000000 147.006531 89.987282 53.191864
516 5 1  0.000000 146.831589 88.434280 52.883183
517 5 1  0.000000 145.378250 88.781776 54.406773
518 5 1  0.000000 146.165634 88.479973 56.216927
519 5 1  0.000000 146.570709 87.253181 57.697693
520 5 1  0.000000 144.933258 86.122658 58.750706
521 5 1  0.000000 145.123215 86.943092 59.723755
522 5 1  0.000000 143.992905 87.509224 60.599197
523 5 1  0.000000 143.623749 88.601295 61.486523
524 5 1  0.000000 142.374573 89.355721 62.696999
525 5 1  0.000000 141.039185 89.970726 62.801498
526 5 1  0.000000 140.713806 89.360725 61.130013
527 5 1  0.000000 139.915558 88.395729 59.878212
528 5 1  0.000000 138.416473 86.848160 59.759979
529 5 1  0.000000 137.210205 86.125954 59.996109
530 5 1  0.000000 136.343414 86.871742 60.902565
531 5 1  0.000000 135.701370 87.116577 59.341125
532 5 1  0.000000 134.305710 86.880028 59.224171
533 5 1  0.000000 135.497910 88.337807 57.713547
534 5 1  0.000000 135.311050 90.349922 57.281734
535 5 1  0.000000 134.732010 91.157951 58.696331
536 5 1  0.000000 133.452042 92.123009 59.057919
537 5 1  0.000000 132.000809 91.774399 60.593327
538 5 1  0.000000 131.292038 90.178322 61.202301
539 5 1  0.000000 130.779938 90.277565 59.519245
540 5 1  0.000000 129.474350 89.314484 60.351906
541 5 1  0.000000 128.778656 88.024025 59.869423
542 5 1  0.000000 127.528114 88.585190 61.043404
543 5 1  0.000000 127.167320 87.304947 60.743084
544 5 1  0.000000 126.008308 87.260368 60.195969
545 5 1  0.000000 125.135086 87.124901 61.017128
546 5 1  0.000000 123.327652 87.397263 61.135311
547 5 1  0.000000 121.483582 87.623840 61.437832
548 5 1  0.000000 120.073067 86.710205 61.520016
549 5 1  0.000000 118.960068 85.649582 61.823895
550 5 1  0.000000 117.897552 86.353493 60.532734
551 5 1  0.000000 115.742989 85.843353 60.309193
552 5 1  0.000000 114.673294 86.520332 61.372673
553 5 1  0.000000 113.386864 87.220604 61.583057
554 5 1  0.000000 112.048355 87.301849 62.175426
555 5 1  0.000000 112.129005 86.927948 60.579391
556 5 1  0.000000 110.500999 86.054619 60.799198
557 5 1  0.000000 110.054207 85.674591 62.276131
558 5 1  0.000000 108.626350 85.195129 62.778687
559 5 1  0.000000 107.876495 86.874794 63.097626
560 5 1  0.000000 106.403130 87.520798 64.048279
561 5 1  0.000000 105.223206 88.267159 65.128868
562 5 1  0.000000 103.503983 87.213173 64.463028
563 5 1  0.000000 103.316216 86.164001 63.561810
564 5 1  0.000000 101.869263 84.948181 63.774849
565 5 1  0.000000 102.140663 85.299545 65.046951
566 5 1  0.000000 100.369888 85.112740 64.512833
567 5 1  0.000000 99.678360 86.407967 65.880310
568 5 1  0.000000 98.292336 86.152512 65.878036
569 5 1  0.000000 97.779106 84.934853 67.143692
570 5 1  0.000000 96.922783 84.586945 65.877937
571 5 1  0.000000 96.000183 83.725739 66.588585
572 5 1  0.000000 95.883148 82.562263 67.140350
573 5 1  0.000000 95.047287 81.929344 68.355492
574 5 1  0.000000 94.094139 81.625145 68.872238
575 5 1  0.000000 92.522881 80.598595 68.900131
576 5 1  0.000000 91.217766 80.399651 69.424767
577 5 1  0.000000 90.681747 79.923805 71.269455
578 5 1  0.000000 89.185974 80.560028 72.363274
579 5 1  0.000000 89.361450 81.319527 73.502655
580 5 1  0.000000 89.912086 81.311333 75.560204
581 5 1  0.000000 88.559586 81.861900 76.407700
582 5 1  0.000000 87.493515 82.860504 76.613777
583 5 1  0.000000 86.223106 82.195702 77.596931
584 5 1  0.000000 86.048798 83.537857 77.014107
585 5 1  0.000000 84.401733 83.408249 78.343613
586 5 1  0.000000 82.966881 83.215126 79.171692
587 5 1  0.000000 82.043144 82.418488 79.959412
588 5 1  0.000000 81.806808 83.525612 82.066795
589 5 1  0.000000 82.961159 84.582008 82.437035
590 5 1  0.000000 83.997108 84.468735 82.735916
591 5 1  0.000000 83.977386 83.240837 83.099480
592 5 1  0.000000 85.226410 83.978798 83.561050
593 5 1  0.000000 85.718956 83.220238 84.594048
594 5 1  0.000000 85.400970 82.087372 85.131409
595 5 1  0.000000 83.773140 80.606697 84.841080
596 5 1  0.000000 83.288666 81.519432 86.345436
597 5 1  0.000000 82.928719 82.605934 86.966072
598 5 1  0.000000 81.946663 82.097321 87.847473
599 5 1  0.000000 80.627800 81.502739 87.871109
600 5 1  0.000000 79.627647 81.182884 88.869217
601 6 1  0.000000 147.541336 88.341743 107.440399
602 6 1  0.000000 146.709595 87.489899 107.372429
603 6 1  0.000000 146.553131 87.254471 105.378967
604 6 1  0.000000 145.476074 86.287277 106.225929
605 6 1  0.000000 145.686859 84.799309 105.488159
606 6 1  0.000000 146.727631 83.791527 105.696655
607 6 1  0.000000 145.337967 82.902596 106.267456
608 6 1  0.000000 145.144073 80.911041 106.049957
609 6 1  0.000000 145.455582 80.300697 107.678322
610 6 1  0.000000 144.500778 79.127205 107.138504
611 6 1  0.000000 145.138336 77.978951 107.186790
612 6 1  0.000000 143.725159 78.387634 108.767693
613 6 1  0.000000 141.686462 77.925148 109.179565
614 6 1  0.000000 140.148102 77.488235 108.611404