Created with TaichiMD

1000 atoms
990 bonds
  0 angles
  0 dihedrals
  0 impropers

1 atom types
1 bond types
0 angle types
0 dihedral types
0 improper types

-80.00000  80.00000 xlo xhi
-80.00000  80.00000 ylo yhi
-80.00000  80.00000 zlo zhi

Masses

1 10.0000

Atoms

  1 0 1  0.000000 131.701324  3.810563 94.512909
  2 0 1  0.000000 131.828186  4.072243 96.695274
  3 0 1  0.000000 130.250504  3.888587 96.674835
  4 0 1  0.000000 131.755341  4.378060 97.218933
  5 0 1  0.000000 132.233261  5.449639 98.480598
  6 0 1  0.000000 131.335571  7.110715 98.227997
  7 0 1  0.000000 129.932953  8.372087 98.516945
  8 0 1  0.000000 128.681931  8.853848 99.546288
  9 0 1  0.000000 127.958008  8.263569 100.534187
 10 0 1  0.000000 127.253654  6.917387 100.348824
 11 0 1  0.000000 125.589760  6.133917 101.262451
 12 0 1  0.000000 124.012726  6.047474 101.296227
 13 0 1  0.000000 124.905777  7.782191 101.733299
 14 0 1  0.000000 124.185173  7.731616 103.376961
 15 0 1  0.000000 123.012146  7.197809 103.733887
 16 0 1  0.000000 121.216728  6.141317 104.235771
 17 0 1  0.000000 119.324112  5.956342 105.055885
 18 0 1  0.000000 118.312706  5.556568 104.498520
 19 0 1  0.000000 117.435265  5.675514 105.728340
 20 0 1  0.000000 116.512222  5.823704 107.205330
 21 0 1  0.000000 114.854630  6.623028 107.235909
 22 0 1  0.000000 113.884644  5.507009 106.898186
 23 0 1  0.000000 113.167473  4.780055 107.897888
 24 0 1  0.000000 112.625641  6.146214 108.816277
 25 0 1  0.000000 110.661659  6.110678 109.244392
 26 0 1  0.000000 110.414825  4.881556 109.697334
 27 0 1  0.000000 108.382561  4.586822 108.692184
 28 0 1  0.000000 108.022453  5.761651 107.509041
 29 0 1  0.000000 106.584908  6.782788 107.256477
 30 0 1  0.000000 105.978683  5.301936 106.479576
 31 0 1  0.000000 104.919273  6.584588 105.626907
 32 0 1  0.000000 104.527596  5.435552 104.360535
 33 0 1  0.000000 103.010002  5.481440 104.571693
 34 0 1  0.000000 100.471817  5.572301 104.411797
 35 0 1  0.000000 98.754776  5.994439 103.947937
 36 0 1  0.000000 97.482445  6.424839 104.254623
 37 0 1  0.000000 97.275368  7.897949 104.212616
 38 0 1  0.000000 95.578659  8.729394 103.741348
 39 0 1  0.000000 94.054588  8.847718 104.597984
 40 0 1  0.000000 92.353470  9.734910 104.885536
 41 0 1  0.000000 92.166496  9.380392 106.319595
 42 0 1  0.000000 91.479523  9.153563 108.189728
 43 0 1  0.000000 90.562195 10.725020 108.723434
 44 0 1  0.000000 89.655128 10.801847 109.725914
 45 0 1  0.000000 88.795959 11.546073 110.410805
 46 0 1  0.000000 86.817314 11.299095 109.955566
 47 0 1  0.000000 86.826263 10.901034 111.906036
 48 0 1  0.000000 85.039406 12.141623 112.333839
 49 0 1  0.000000 83.721786 12.618363 111.355537
 50 0 1  0.000000 82.793236 12.740846 113.132889
 51 0 1  0.000000 82.038933 14.221155 112.161575
 52 0 1  0.000000 80.420113 14.227510 111.177475
 53 0 1  0.000000 79.542160 16.272781 110.961586
 54 0 1  0.000000 78.388275 17.444788 112.205917
 55 0 1  0.000000 76.821823 18.173372 112.594803
 56 0 1  0.000000 75.486320 19.027628 113.172852
 57 0 1  0.000000 73.845512 19.072037 113.272881
 58 0 1  0.000000 73.582611 19.428022 111.232895
 59 0 1  0.000000 72.502686 18.907686 111.750137
 60 0 1  0.000000 71.233421 18.327848 111.434288
 61 0 1  0.000000 69.417015 18.500370 111.744812
 62 0 1  0.000000 68.402443 18.485779 112.445763
 63 0 1  0.000000 66.926880 17.963266 111.971657
 64 0 1  0.000000 65.315544 17.585211 113.326668
 65 0 1  0.000000 64.038933 16.797565 114.374458
 66 0 1  0.000000 63.046021 16.809671 112.990929
 67 0 1  0.000000 62.485867 17.882395 111.809212
 68 0 1  0.000000 60.964260 18.147594 111.674706
 69 0 1  0.000000 59.516758 17.386171 111.110565
 70 0 1  0.000000 58.868023 16.815647 112.594368
 71 0 1  0.000000 57.165169 17.229614 113.104240
 72 0 1  0.000000 56.459049 17.062214 112.241730
 73 0 1  0.000000 55.610798 18.153074 111.396461
 74 0 1  0.000000 56.384037 16.514759 110.405067
 75 0 1  0.000000 55.785660 16.699368 108.691566
 76 0 1  0.000000 55.994255 15.703706 107.010284
 77 0 1  0.000000 55.879646 16.795620 105.896301
 78 0 1  0.000000 55.401432 17.692938 107.422363
 79 0 1  0.000000 53.759407 18.634096 106.671875
 80 0 1  0.000000 53.133488 18.775179 105.127708
 81 0 1  0.000000 51.730602 18.590252 105.144608
 82 0 1  0.000000 50.238731 17.845921 105.400238
 83 0 1  0.000000 50.376724 18.455116 104.590218
 84 0 1  0.000000 49.430935 17.607407 102.706406
 85 0 1  0.000000 49.286503 16.724844 101.290871
 86 0 1  0.000000 48.026230 16.373751 100.156395
 87 0 1  0.000000 46.458424 17.199677 99.306404
 88 0 1  0.000000 45.223053 18.373745 99.647629
 89 0 1  0.000000 43.604176 18.900732 98.882690
 90 0 1  0.000000 43.547874 19.821304 98.970551
 91 0 1  0.000000 44.017860 20.887829 97.365410
 92 0 1  0.000000 42.794460 21.661798 95.738586
 93 0 1  0.000000 41.732811 23.136858 95.644981
 94 0 1  0.000000 41.942013 24.394575 96.094398
 95 0 1  0.000000 41.038010 25.623316 97.195908
 96 0 1  0.000000 40.708580 26.814964 98.523598
 97 0 1  0.000000 41.862980 28.276094 98.185539
 98 0 1  0.000000 41.698009 28.394970 97.589500
 99 0 1  0.000000 40.533154 28.986647 96.576744
100 0 1  0.000000 41.039230 29.852253 97.593758
101 1 1  0.000000 127.128960 47.936188 99.927620
102 1 1  0.000000 128.457336 46.873211 99.992981
103 1 1  0.000000 129.399780 45.999134 101.082100
104 1 1  0.000000 130.332535 46.056828 99.858147
105 1 1  0.000000 129.605515 44.378464 100.191483
106 1 1  0.000000 130.211853 42.713821 100.264351
107 1 1  0.000000 129.073654 42.802116 99.052872
108 1 1  0.000000 129.203049 41.626793 98.074646
109 1 1  0.000000 127.919998 40.655758 97.188324
110 1 1  0.000000 126.911118 39.333515 96.249672
111 1 1  0.000000 126.490051 40.314304 95.294395
112 1 1  0.000000 126.972733 42.392017 94.423645
113 1 1  0.000000 126.112335 40.786671 94.170517
114 1 1  0.000000 125.198082 39.967926 92.920158
115 1 1  0.000000 124.788948 39.253433 91.031548
116 1 1  0.000000 124.256516 38.918442 92.055786
117 1 1  0.000000 124.112129 38.213421 90.384781
118 1 1  0.000000 122.615280 38.481506 90.907219
119 1 1  0.000000 121.492889 37.447777 91.533600
120 1 1  0.000000 122.309937 36.416370 89.675232
121 1 1  0.000000 121.477303 35.722157 90.592415
122 1 1  0.000000 121.979637 34.275402 90.359558
123 1 1  0.000000 121.019913 33.592091 89.252953
124 1 1  0.000000 121.029663 32.833080 87.646011
125 1 1  0.000000 118.920410 33.212334 87.990051
126 1 1  0.000000 120.131157 32.312599 88.131622
127 1 1  0.000000 118.332283 32.995808 87.882805
128 1 1  0.000000 117.328972 32.481777 89.430084
129 1 1  0.000000 116.481758 31.143450 90.275314
130 1 1  0.000000 116.837685 30.618896 88.755432
131 1 1  0.000000 117.701195 28.513411 88.869347
132 1 1  0.000000 116.249390 27.007357 88.975273
133 1 1  0.000000 115.257759 27.392290 89.261223
134 1 1  0.000000 113.199013 27.889708 89.519051
135 1 1  0.000000 111.816612 28.060011 91.089821
136 1 1  0.000000 110.581871 27.491951 90.577438
137 1 1  0.000000 108.901779 28.058081 90.197098
138 1 1  0.000000 107.279633 28.108391 88.808502
139 1 1  0.000000 105.662483 28.091105 87.645126
140 1 1  0.000000 103.490692 27.567635 87.634270
141 1 1  0.000000 101.571701 28.683990 88.473206
142 1 1  0.000000 101.576424 29.982792 89.363358
143 1 1  0.000000 99.958916 31.789181 89.364441
144 1 1  0.000000 99.152374 33.555912 90.088509
145 1 1  0.000000 97.508049 33.274220 89.929100
146 1 1  0.000000 95.952301 34.150631 89.320099
147 1 1  0.000000 93.841599 34.203285 88.493835
148 1 1  0.000000 91.855759 35.121883 88.586159
149 1 1  0.000000 90.451279 35.829815 87.917458
150 1 1  0.000000 88.874672 36.991856 88.109039
151 1 1  0.000000 88.339989 38.085197 87.500359
152 1 1  0.000000 87.647148 38.218147 89.034569
153 1 1  0.000000 85.401588 39.130375 88.091904
154 1 1  0.000000 83.513107 39.113506 87.965050
155 1 1  0.000000 82.965218 39.009502 86.339615
156 1 1  0.000000 82.607460 40.284092 86.402222
157 1 1  0.000000 81.433731 41.316257 86.167747
158 1 1  0.000000 80.499985 39.820545 86.166748
159 1 1  0.000000 79.457367 38.862156 85.252777
160 1 1  0.000000 77.796982 38.856808 84.495071
161 1 1  0.000000 76.257080 39.351494 84.041527
162 1 1  0.000000 75.626472 39.155754 82.797646
163 1 1  0.000000 74.397804 39.052494 83.477585
164 1 1  0.000000 73.105659 38.637497 84.695351
165 1 1  0.000000 73.091278 38.101761 86.037514
166 1 1  0.000000 73.660080 37.214508 86.735382
167 1 1  0.000000 73.509872 38.769802 88.263481
168 1 1  0.000000 72.860344 39.920280 88.830391
169 1 1  0.000000 70.845009 39.236790 88.697006
170 1 1  0.000000 70.392487 40.072678 89.613350
171 1 1  0.000000 69.852104 39.832932 88.348289
172 1 1  0.000000 68.861198 39.432346 86.834183
173 1 1  0.000000 67.861366 39.042843 85.516083
174 1 1  0.000000 67.777946 40.266483 86.282440
175 1 1  0.000000 66.950165 38.835052 86.940659
176 1 1  0.000000 65.656685 40.080200 87.185692
177 1 1  0.000000 64.311203 39.835033 87.836113
178 1 1  0.000000 63.477806 39.586468 89.209770
179 1 1  0.000000 62.257988 39.356670 89.114174
180 1 1  0.000000 61.583469 39.795330 90.133331
181 1 1  0.000000 60.538582 39.535446 88.952538
182 1 1  0.000000 60.389492 40.529522 90.189636
183 1 1  0.000000 60.203445 41.212753 91.549049
184 1 1  0.000000 59.576462 40.889805 92.587448
185 1 1  0.000000 58.832932 41.081066 93.683952
186 1 1  0.000000 57.542351 40.474781 94.582756
187 1 1  0.000000 57.092827 39.377777 93.794456
188 1 1  0.000000 56.584587 38.766228 95.133980
189 1 1  0.000000 56.485043 38.162727 96.396172
190 1 1  0.000000 56.530392 37.533253 97.721062
191 1 1  0.000000 57.002033 36.810665 99.045433
192 1 1  0.000000 55.904316 35.431286 99.415321
193 1 1  0.000000 56.034607 34.246426 100.209984
194 1 1  0.000000 56.046574 34.632759 101.543739
195 1 1  0.000000 56.905018 35.691856 102.240005
196 1 1  0.000000 57.249161 33.964947 102.727829
197 1 1  0.000000 58.059471 34.682770 103.606422
198 1 1  0.000000 59.124779 33.256359 103.762154
199 1 1  0.000000 59.652386 31.365999 104.058037
200 1 1  0.000000 58.764290 30.608404 104.671165
201 2 1  0.000000 119.835274 48.031067 52.546650
202 2 1  0.000000 119.301292 49.491962 53.286678
203 2 1  0.000000 119.554504 49.566147 51.467339
204 2 1  0.000000 119.860931 50.998772 53.046490
205 2 1  0.000000 121.036224 51.300354 51.895378
206 2 1  0.000000 120.104729 52.054501 51.214592
207 2 1  0.000000 120.982574 53.269585 50.626842
208 2 1  0.000000 119.510544 52.387684 49.612350
209 2 1  0.000000 118.307495 53.732700 49.048721
210 2 1  0.000000 117.543282 53.272335 47.917645
211 2 1  0.000000 115.450752 53.529762 48.258785
212 2 1  0.000000 114.035309 52.507458 47.690342
213 2 1  0.000000 113.713310 52.137917 48.979023
214 2 1  0.000000 112.089943 51.134449 48.849331
215 2 1  0.000000 111.694771 52.901905 49.275257
216 2 1  0.000000 110.021919 52.981171 50.036774
217 2 1  0.000000 110.280144 53.969059 48.085796
218 2 1  0.000000 110.000702 54.458878 46.606880
219 2 1  0.000000 108.139870 54.560295 46.341774
220 2 1  0.000000 106.275383 55.013027 45.642677
221 2 1  0.000000 105.905205 57.054905 46.204285
222 2 1  0.000000 103.997643 56.360561 47.142899
223 2 1  0.000000 103.003647 57.380379 47.478466
224 2 1  0.000000 101.890755 58.687267 46.318150
225 2 1  0.000000 101.133667 58.453300 47.685688
226 2 1  0.000000 100.811317 56.317753 47.861118
227 2 1  0.000000 100.235840 55.459591 49.132236
228 2 1  0.000000 98.759636 55.816624 50.032932
229 2 1  0.000000 98.825119 53.981888 50.334923
230 2 1  0.000000 97.139542 54.575287 50.337662
231 2 1  0.000000 95.766029 54.836288 49.498180
232 2 1  0.000000 94.521355 54.847248 49.836998
233 2 1  0.000000 93.056519 55.318134 49.723408
234 2 1  0.000000 91.871910 54.064491 49.759300
235 2 1  0.000000 89.821510 54.608253 50.064079
236 2 1  0.000000 88.409157 54.934544 51.690029
237 2 1  0.000000 87.678131 56.068661 50.535088
238 2 1  0.000000 87.005608 56.929295 49.920898
239 2 1  0.000000 85.926689 58.029346 49.865181
240 2 1  0.000000 85.094666 58.452885 49.106346
241 2 1  0.000000 83.035645 59.192524 49.833603
242 2 1  0.000000 81.372154 59.898758 51.573318
243 2 1  0.000000 80.954048 58.863117 52.655560
244 2 1  0.000000 80.536171 58.362514 54.519367
245 2 1  0.000000 80.085045 59.982586 55.015972
246 2 1  0.000000 79.182510 61.418869 56.229012
247 2 1  0.000000 78.287926 61.220699 56.814949
248 2 1  0.000000 76.630951 62.131989 57.086048
249 2 1  0.000000 74.874115 63.373569 57.008385
250 2 1  0.000000 73.338638 63.375599 57.733711
251 2 1  0.000000 71.516167 63.625481 57.689621
252 2 1  0.000000 71.776276 64.614388 56.519264
253 2 1  0.000000 70.322212 65.142296 57.260487
254 2 1  0.000000 69.327614 64.228287 57.978420
255 2 1  0.000000 68.443764 63.157429 58.344330
256 2 1  0.000000 68.093094 63.212021 59.734959
257 2 1  0.000000 66.900970 62.933853 60.316689
258 2 1  0.000000 65.253654 63.099339 60.028568
259 2 1  0.000000 65.017242 62.035095 60.431473
260 2 1  0.000000 64.350060 63.755005 60.403297
261 2 1  0.000000 62.810532 63.669697 58.599426
262 2 1  0.000000 63.297546 62.959232 57.253204
263 2 1  0.000000 61.558907 62.666092 58.231308
264 2 1  0.000000 60.685291 62.247410 59.355793
265 2 1  0.000000 59.244232 61.975952 60.357307
266 2 1  0.000000 60.231743 61.961864 59.672783
267 2 1  0.000000 58.480270 61.981358 60.737747
268 2 1  0.000000 58.538868 62.669029 62.255405
269 2 1  0.000000 57.356670 61.550533 63.177181
270 2 1  0.000000 56.583920 62.834766 63.433105
271 2 1  0.000000 55.000607 62.150265 64.232376
272 2 1  0.000000 54.957531 60.641937 63.564537
273 2 1  0.000000 53.145897 61.108353 64.014572
274 2 1  0.000000 52.663849 61.273621 62.802288
275 2 1  0.000000 52.705891 61.602745 61.141895
276 2 1  0.000000 52.377811 63.025826 62.411041
277 2 1  0.000000 53.063393 64.633553 61.636074
278 2 1  0.000000 52.059998 64.924011 60.375546
279 2 1  0.000000 50.291325 64.512184 60.058903
280 2 1  0.000000 49.931458 63.235291 58.611855
281 2 1  0.000000 50.371040 64.292191 57.717251
282 2 1  0.000000 48.821209 64.028099 58.016846
283 2 1  0.000000 49.349442 62.302395 56.920979
284 2 1  0.000000 48.297821 63.260452 55.862129
285 2 1  0.000000 47.566326 64.215836 55.322933
286 2 1  0.000000 45.994041 64.158501 54.906353
287 2 1  0.000000 46.619415 64.743874 53.255669
288 2 1  0.000000 45.663910 64.132225 52.249218
289 2 1  0.000000 45.847492 63.122379 51.989159
290 2 1  0.000000 46.132816 64.635963 50.840446
291 2 1  0.000000 45.056057 64.544991 49.889851
292 2 1  0.000000 44.094597 63.430183 49.830246
293 2 1  0.000000 43.128544 61.835316 49.372795
294 2 1  0.000000 42.411911 62.589306 49.834129
295 2 1  0.000000 40.720676 63.323933 50.621807
296 2 1  0.000000 40.426159 62.044998 51.144073
297 2 1  0.000000 39.641880 61.755581 52.276085
298 2 1  0.000000 39.170853 61.342590 53.523228
299 2 1  0.000000 37.802025 62.382557 54.547043
300 2 1  0.000000 38.585594 61.899532 53.106274
301 3 1  0.000000 117.392975 57.846645 118.229172
302 3 1  0.000000 118.602852 58.907639 118.988548
303 3 1  0.000000 117.976578 58.901108 119.915550
304 3 1  0.000000 117.133308 59.375149 119.794792
305 3 1  0.000000 116.963348 59.656368 121.822182
306 3 1  0.000000 118.431770 59.577312 122.787926
307 3 1  0.000000 118.694542 59.042004 124.608681
308 3 1  0.000000 119.573425 60.178223 123.722023
309 3 1  0.000000 119.897362 61.341496 123.397476
310 3 1  0.000000 119.853333 61.651367 125.454102
311 3 1  0.000000 120.872437 62.364937 124.343277
312 3 1  0.000000 120.117142 63.213226 122.788460
313 3 1  0.000000 119.378334 64.475456 122.298653
314 3 1  0.000000 120.729492 65.769730 121.146446
315 3 1  0.000000 120.120506 65.579735 119.585945
316 3 1  0.000000 120.019218 64.578888 118.812477
317 3 1  0.000000 121.219360 64.500374 118.165771
318 3 1  0.000000 122.273766 65.593941 116.982941
319 3 1  0.000000 122.224770 65.689079 115.321144
320 3 1  0.000000 122.030678 64.006462 113.231079
321 3 1  0.000000 122.089798 62.884399 112.992401
322 3 1  0.000000 121.800072 61.914917 113.673775
323 3 1  0.000000 121.027115 62.361736 114.312103
324 3 1  0.000000 120.071167 60.817238 113.930397
325 3 1  0.000000 119.423950 61.156918 112.409111
326 3 1  0.000000 117.426903 61.693741 112.562157
327 3 1  0.000000 116.935684 60.487141 111.767166
328 3 1  0.000000 116.946625 59.159210 111.316498
329 3 1  0.000000 115.642715 60.587017 111.196594
330 3 1  0.000000 115.011673 60.996605 110.082512
331 3 1  0.000000 113.821770 59.699898 110.210678
332 3 1  0.000000 112.809898 60.164368 111.751144
333 3 1  0.000000 112.884003 58.496727 112.832718
334 3 1  0.000000 111.347931 58.757320 112.362282
335 3 1  0.000000 110.282387 59.720993 113.355629
336 3 1  0.000000 108.542297 60.287537 113.607315
337 3 1  0.000000 106.861549 59.780872 113.703468
338 3 1  0.000000 105.566635 59.216785 113.247215
339 3 1  0.000000 104.623100 59.798691 113.712257
340 3 1  0.000000 104.904755 60.894615 112.674767
341 3 1  0.000000 103.623299 59.459469 113.064438
342 3 1  0.000000 102.613609 60.133003 114.079575
343 3 1  0.000000 101.003181 60.577812 114.314766
344 3 1  0.000000 101.761986 61.796268 113.178802
345 3 1  0.000000 100.408813 60.159172 113.654541
346 3 1  0.000000 99.768372 58.454525 112.690170
347 3 1  0.000000 98.501381 59.369598 112.473007
348 3 1  0.000000 96.965645 59.077438 112.108574
349 3 1  0.000000 95.781006 60.678520 112.229927
350 3 1  0.000000 95.422852 58.948940 111.470734
351 3 1  0.000000 94.978035 57.920319 112.728683
352 3 1  0.000000 93.701904 58.122799 112.377365
353 3 1  0.000000 93.956818 57.535885 113.846069
354 3 1  0.000000 94.080109 57.236179 114.765167
355 3 1  0.000000 92.763245 56.237850 114.067451
356 3 1  0.000000 90.515724 56.110558 113.422577
357 3 1  0.000000 88.940666 57.455494 113.564308
358 3 1  0.000000 89.919754 58.720695 112.917992
359 3 1  0.000000 88.782967 59.453384 112.083275
360 3 1  0.000000 87.121338 61.126617 112.132576
361 3 1  0.000000 86.817924 62.155521 111.937210
362 3 1  0.000000 85.843010 61.384476 110.951035
363 3 1  0.000000 85.261688 62.196621 112.660515
364 3 1  0.000000 85.401886 63.512829 111.820793
365 3 1  0.000000 85.133820 65.183319 112.565598
366 3 1  0.000000 84.414101 67.017761 111.296753
367 3 1  0.000000 83.394409 67.011520 110.409645
368 3 1  0.000000 82.748543 66.075127 110.197548
369 3 1  0.000000 81.365112 67.162109 109.451965
370 3 1  0.000000 80.457924 66.598106 107.756569
371 3 1  0.000000 78.331985 66.685486 107.685738
372 3 1  0.000000 77.676826 66.134720 108.497467
373 3 1  0.000000 77.565750 66.444878 106.724266
374 3 1  0.000000 76.733307 66.684792 105.439224
375 3 1  0.000000 76.074326 67.812485 104.903183
376 3 1  0.000000 74.734077 67.013069 103.731201
377 3 1  0.000000 73.366638 66.256805 103.041206
378 3 1  0.000000 72.172638 65.730247 101.451675
379 3 1  0.000000 73.374641 66.031654 101.712906
380 3 1  0.000000 72.281258 66.191536 100.004120
381 3 1  0.000000 71.387543 65.577065 98.414879
382 3 1  0.000000 70.149208 65.247375 97.166214
383 3 1  0.000000 68.634026 63.717125 97.109337
384 3 1  0.000000 67.126938 64.421097 96.389725
385 3 1  0.000000 66.874870 65.588837 95.470901
386 3 1  0.000000 66.234543 65.344055 94.497559
387 3 1  0.000000 66.299217 65.163147 92.311966
388 3 1  0.000000 66.751617 66.238281 90.723030
389 3 1  0.000000 66.447166 66.039894 89.237343
390 3 1  0.000000 65.731445 66.470192 87.617119
391 3 1  0.000000 65.777077 66.502853 86.020264
392 3 1  0.000000 66.011711 68.184341 85.157646
393 3 1  0.000000 66.479965 66.738869 84.092003
394 3 1  0.000000 67.508720 67.723679 84.257294
395 3 1  0.000000 68.828667 67.166885 83.821327
396 3 1  0.000000 70.496208 66.775696 84.288269
397 3 1  0.000000 70.867233 67.993156 85.931625
398 3 1  0.000000 70.567940 68.036552 87.801193
399 3 1  0.000000 71.961288 68.394180 87.402657
400 3 1  0.000000 70.136177 69.102539 87.064919
401 4 1  0.000000 112.982994 61.906979 47.936775
402 4 1  0.000000 111.954453 63.190445 47.567535
403 4 1  0.000000 110.123657 62.982147 47.317699
404 4 1  0.000000 109.859726 64.427322 48.141457
405 4 1  0.000000 110.543030 65.582672 48.834255
406 4 1  0.000000 108.874504 66.386833 49.109337
407 4 1  0.000000 107.093430 66.325905 50.003681
408 4 1  0.000000 106.027176 66.018036 50.318439
409 4 1  0.000000 105.465805 64.585213 52.569679
410 4 1  0.000000 104.480156 65.988838 53.073189
411 4 1  0.000000 103.740303 66.969521 52.105976
412 4 1  0.000000 101.888054 66.704025 53.190994
413 4 1  0.000000 100.256004 66.650459 53.796295
414 4 1  0.000000 98.240364 65.748924 53.604721
415 4 1  0.000000 97.293991 64.650299 54.131962
416 4 1  0.000000 95.937492 65.023575 54.707474
417 4 1  0.000000 94.423515 65.316414 54.428108
418 4 1  0.000000 94.041779 64.912369 53.336823
419 4 1  0.000000 92.155853 64.573936 52.128906
420 4 1  0.000000 91.132950 63.941971 50.772602
421 4 1  0.000000 89.783295 64.059029 49.516663
422 4 1  0.000000 88.032890 63.739307 50.356659
423 4 1  0.000000 87.603302 64.602402 51.072395
424 4 1  0.000000 86.768135 64.443176 50.020222
425 4 1  0.000000 85.574493 65.957085 49.660244
426 4 1  0.000000 84.814476 64.806374 50.287125
427 4 1  0.000000 83.917526 66.167778 50.330685
428 4 1  0.000000 82.498260 67.212646 50.590725
429 4 1  0.000000 82.911026 68.563217 49.922867
430 4 1  0.000000 81.481728 69.148468 49.197857
431 4 1  0.000000 80.255524 70.166451 49.856388
432 4 1  0.000000 79.636131 71.134537 49.468140
433 4 1  0.000000 78.863335 70.640724 47.769115
434 4 1  0.000000 78.339027 69.163010 46.352875
435 4 1  0.000000 78.001465 69.124641 44.676918
436 4 1  0.000000 78.092415 67.229813 45.290440
437 4 1  0.000000 78.411537 65.329086 44.831615
438 4 1  0.000000 77.549957 66.142097 44.482681
439 4 1  0.000000 76.450859 65.985100 45.821087
440 4 1  0.000000 75.903641 65.061249 44.070217
441 4 1  0.000000 75.843498 63.043503 44.010712
442 4 1  0.000000 74.438057 62.729359 45.297295
443 4 1  0.000000 73.381462 64.148422 44.269501
444 4 1  0.000000 72.066734 64.877182 44.421082
445 4 1  0.000000 70.973824 63.239605 44.499630
446 4 1  0.000000 71.119392 64.491356 43.875435
447 4 1  0.000000 70.014664 63.229343 43.867432
448 4 1  0.000000 68.237152 63.940811 44.674046
449 4 1  0.000000 66.939812 62.956299 45.485294
450 4 1  0.000000 67.051857 63.887043 46.213036
451 4 1  0.000000 66.736145 64.175911 44.143326
452 4 1  0.000000 65.605202 63.857964 42.930828
453 4 1  0.000000 65.261330 65.276680 44.148907
454 4 1  0.000000 63.688374 65.820274 43.858055
455 4 1  0.000000 61.886627 66.489563 44.184776
456 4 1  0.000000 60.696529 67.207512 43.592163
457 4 1  0.000000 59.219051 68.307915 44.898098
458 4 1  0.000000 58.906231 66.535164 44.666557
459 4 1  0.000000 57.615448 66.258560 45.643913
460 4 1  0.000000 57.949173 65.416092 44.347897
461 4 1  0.000000 58.015385 63.647457 43.812874
462 4 1  0.000000 56.870342 62.486637 43.409920
463 4 1  0.000000 56.161167 61.044689 43.366047
464 4 1  0.000000 55.418358 59.633503 43.831650
465 4 1  0.000000 56.037338 57.980099 45.029144
466 4 1  0.000000 56.675915 59.089085 46.384476
467 4 1  0.000000 54.925972 59.435490 46.983364
468 4 1  0.000000 54.560608 60.935719 47.440647
469 4 1  0.000000 53.352337 61.017929 47.750957
470 4 1  0.000000 52.356876 61.945900 46.272350
471 4 1  0.000000 52.016811 62.101364 47.923130
472 4 1  0.000000 51.670109 61.048714 48.307339
473 4 1  0.000000 49.859303 61.585415 47.426529
474 4 1  0.000000 48.711468 60.259476 47.060646
475 4 1  0.000000 47.298004 59.822575 46.392292
476 4 1  0.000000 46.094433 61.158123 46.897896
477 4 1  0.000000 45.381645 61.922554 46.079723
478 4 1  0.000000 46.270786 62.029263 44.159100
479 4 1  0.000000 45.901009 63.214764 43.189758
480 4 1  0.000000 45.957802 63.352848 41.786121
481 4 1  0.000000 45.775455 61.729794 40.371216
482 4 1  0.000000 44.222458 61.788895 39.397110
483 4 1  0.000000 42.903793 62.049133 39.687366
484 4 1  0.000000 43.084946 60.333904 40.398949
485 4 1  0.000000 41.442245 60.160385 40.453144
486 4 1  0.000000 41.231644 59.042133 40.843563
487 4 1  0.000000 41.121742 57.780148 42.636871
488 4 1  0.000000 42.313137 57.715977 44.057888
489 4 1  0.000000 41.098675 57.453255 45.269440
490 4 1  0.000000 40.351799 55.961311 44.864697
491 4 1  0.000000 40.279388 57.333775 45.872730
492 4 1  0.000000 40.339489 56.809200 47.221169
493 4 1  0.000000 40.688965 55.178146 47.879318
494 4 1  0.000000 40.915257 53.698135 48.611526
495 4 1  0.000000 40.078129 52.749477 50.256733
496 4 1  0.000000 40.195084 51.581181 51.348122
497 4 1  0.000000 40.806656 52.405308 51.199261
498 4 1  0.000000 42.409637 52.043667 52.407551
499 4 1  0.000000 43.234589 52.952900 53.101330
500 4 1  0.000000 42.902203 55.145145 52.685520
501 5 1  0.000000 112.973488 83.921501 86.921227
502 5 1  0.000000 113.508850 85.598213 87.015434
503 5 1  0.000000 114.581512 84.051743 86.473228
504 5 1  0.000000 115.138206 83.727547 85.426376
505 5 1  0.000000 114.852654 85.167496 84.711754
506 5 1  0.000000 114.162079 86.206940 83.923134
507 5 1  0.000000 113.943039 86.002495 82.037743
508 5 1  0.000000 113.836197 86.143112 80.583611
509 5 1  0.000000 113.227211 87.187477 79.546150
510 5 1  0.000000 113.481133 87.132904 77.666443
511 5 1  0.000000 112.928802 87.657700 76.548630
512 5 1  0.000000 111.240410 87.375206 76.764702
513 5 1  0.000000 109.851967 87.494194 74.998146
514 5 1  0.000000 109.285469 86.654434 73.314690
515 5 1  0.000000 108.025108 86.254547 73.540520
516 5 1  0.000000 106.186066 86.968399 73.933777
517 5 1  0.000000 106.277565 85.630814 75.073540
518 5 1  0.000000 105.112473 85.560738 75.932594
519 5 1  0.000000 103.711601 85.138680 77.206055
520 5 1  0.000000 102.188789 86.435715 77.192085
521 5 1  0.000000 100.770004 85.388527 77.117317
522 5 1  0.000000 99.865906 84.297020 77.702766
523 5 1  0.000000 98.028915 83.910049 78.064613
524 5 1  0.000000 96.451889 85.365128 78.189453
525 5 1  0.000000 94.999054 86.374977 78.692268
526 5 1  0.000000 93.189667 85.741692 78.113213
527 5 1  0.000000 92.631645 84.362076 78.228142
528 5 1  0.000000 92.805542 85.873466 77.479309
529 5 1  0.000000 91.191628 86.495934 77.875992
530 5 1  0.000000 88.872650 86.591583 78.379639
531 5 1  0.000000 88.303665 86.933212 76.651573
532 5 1  0.000000 87.003204 87.563255 76.189224
533 5 1  0.000000 85.592468 87.884300 76.155968
534 5 1  0.000000 83.023499 87.057755 76.385582
535 5 1  0.000000 81.843414 85.878860 77.034775
536 5 1  0.000000 81.149925 84.319229 77.995438
537 5 1  0.000000 79.532303 83.557312 77.707542
538 5 1  0.000000 77.607834 83.882210 77.048180
539 5 1  0.000000 76.651024 85.248398 76.995049
540 5 1  0.000000 75.059883 85.302124 78.389839
541 5 1  0.000000 74.149178 86.463120 78.941238
542 5 1  0.000000 73.290161 87.656395 79.394691
543 5 1  0.000000 71.658890 88.425522 79.663940
544 5 1  0.000000 71.181541 89.150360 80.802849
545 5 1  0.000000 70.249702 88.735367 81.698494
546 5 1  0.000000 68.793137 89.327034 82.189232
547 5 1  0.000000 67.655212 88.625717 82.836761
548 5 1  0.000000 67.781883 90.028244 83.709496
549 5 1  0.000000 67.131310 91.606148 83.595390
550 5 1  0.000000 65.815269 91.834564 82.995522
551 5 1  0.000000 64.997055 90.766083 83.989426
552 5 1  0.000000 63.799438 92.266411 84.742226
553 5 1  0.000000 61.904678 92.627686 84.535820
554 5 1  0.000000 60.082848 92.573204 84.496674
555 5 1  0.000000 60.059231 92.644447 83.183891
556 5 1  0.000000 58.498314 93.836655 83.125664
557 5 1  0.000000 57.347240 92.338951 83.661797
558 5 1  0.000000 55.964249 93.886002 83.799797
559 5 1  0.000000 54.678921 94.950737 83.995956
560 5 1  0.000000 53.371502 95.998337 84.286453
561 5 1  0.000000 51.526760 96.287926 84.236084
562 5 1  0.000000 50.265060 97.286682 84.821594
563 5 1  0.000000 48.300343 97.954735 85.218788
564 5 1  0.000000 48.112301 96.324936 86.274536
565 5 1  0.000000 48.137390 94.317780 87.082420
566 5 1  0.000000 47.561146 93.265373 87.445900
567 5 1  0.000000 46.117809 92.232323 86.858566
568 5 1  0.000000 45.020931 91.732834 86.099243
569 5 1  0.000000 45.425423 93.321632 86.979881
570 5 1  0.000000 44.049965 93.394691 87.413116
571 5 1  0.000000 43.080986 93.377907 88.899834
572 5 1  0.000000 41.883823 94.146889 90.050888
573 5 1  0.000000 40.946514 93.674767 88.939995
574 5 1  0.000000 40.803837 93.149857 87.616714
575 5 1  0.000000 40.750546 91.593018 87.769569
576 5 1  0.000000 39.580181 90.671654 87.979439
577 5 1  0.000000 38.850777 89.918007 88.934395
578 5 1  0.000000 38.225498 89.024864 89.602165
579 5 1  0.000000 38.635262 87.995735 89.691238
580 5 1  0.000000 38.892044 86.204193 90.164444
581 5 1  0.000000 38.961338 85.927612 88.578697
582 5 1  0.000000 37.745319 85.694336 88.986008
583 5 1  0.000000 37.091179 85.212311 88.477585
584 5 1  0.000000 35.805447 84.974205 88.362801
585 5 1  0.000000 34.492981 85.919693 88.085495
586 5 1  0.000000 33.318714 86.543663 88.087120
587 5 1  0.000000 31.777020 86.168762 87.101494
588 5 1  0.000000 29.667124 85.833122 86.572075
589 5 1  0.000000 29.828726 85.690521 84.927811
590 5 1  0.000000 29.049595 83.718811 85.042259
591 5 1  0.000000 29.092346 82.060005 85.205261
592 5 1  0.000000 28.505461 81.232582 85.309433
593 5 1  0.000000 29.162085 80.028908 85.805115
594 5 1  0.000000 28.161222 79.134239 85.171509
595 5 1  0.000000 27.283640 78.852867 85.446495
596 5 1  0.000000 25.880661 78.482574 83.867630
597 5 1  0.000000 24.226395 79.294640 83.738327
598 5 1  0.000000 25.886173 78.572578 82.645393
599 5 1  0.000000 27.164846 78.304329 81.267334
600 5 1  0.000000 26.677645 79.083664 79.674416
601 6 1  0.000000 104.431511 99.288734 72.199966
602 6 1  0.000000 103.820137 99.109581 73.242844
603 6 1  0.000000 103.067299 99.023308 71.553314
604 6 1  0.000000 102.043411 97.678658 72.395401
605 6 1  0.000000 102.004837 96.305557 73.408600
606 6 1  0.000000 102.671944 96.172638 72.103165
607 6 1  0.000000 102.208405 94.400475 71.695381
608 6 1  0.000000 101.673355 92.744118 70.886215
609 6 1  0.000000 100.177017 93.604385 69.662521
610 6 1  0.000000 98.961838 93.852692 70.855743
611 6 1  0.000000 98.952934 94.650223 70.401871