ITEM: TIMESTEP
1
ITEM: NUMBER OF ATOMS
1000
ITEM: BOX BOUNDS pp pp pp
     -8.000000E+01       8.000000E+01
     -8.000000E+01       8.000000E+01
     -8.000000E+01       8.000000E+01
ITEM: ATOMS id mol type xu yu zu
1 0 1 3.790259e+00 1.999846e+01 8.000754e+01
2 0 1 5.302159e+00 2.000399e+01 7.998555e+01
3 0 1 6.850805e+00 2.001431e+01 8.001175e+01
4 0 1 8.387659e+00 1.999544e+01 8.002022e+01
5 0 1 9.939845e+00 1.998984e+01 8.002019e+01
6 0 1 1.145947e+01 1.997981e+01 8.000476e+01
7 0 1 1.301220e+01 1.998153e+01 7.998505e+01
8 0 1 1.454408e+01 1.999253e+01 7.999643e+01
9 0 1 1.610850e+01 2.001627e+01 7.997983e+01
10 0 1 1.761984e+01 1.999194e+01 7.998795e+01
11 0 1 1.916868e+01 2.000903e+01 8.001033e+01
12 0 1 2.071584e+01 1.998551e+01 7.998799e+01
13 0 1 2.223887e+01 2.001701e+01 7.999174e+01
14 0 1 2.377225e+01 1.998717e+01 7.999992e+01
15 0 1 2.533525e+01 2.001910e+01 7.998198e+01
16 0 1 2.686751e+01 1.999738e+01 8.000333e+01
17 0 1 2.841613e+01 1.999244e+01 8.001100e+01
18 0 1 2.995251e+01 1.999173e+01 8.001103e+01
19 0 1 3.150994e+01 2.001303e+01 8.000774e+01
20 0 1 3.304045e+01 1.997968e+01 8.000215e+01
21 0 1 3.456673e+01 2.001302e+01 7.998985e+01
22 0 1 3.612042e+01 1.998283e+01 7.998985e+01
23 0 1 3.764661e+01 2.000581e+01 8.001022e+01
24 0 1 3.918088e+01 2.001164e+01 8.001947e+01
25 0 1 4.074615e+01 2.001252e+01 7.999287e+01
26 0 1 4.227694e+01 2.000772e+01 8.001266e+01
27 0 1 4.380356e+01 1.999588e+01 7.998573e+01
28 0 1 4.533450e+01 2.000850e+01 8.000421e+01
29 0 1 4.690110e+01 2.001071e+01 7.998036e+01
30 0 1 4.843331e+01 2.001562e+01 7.998148e+01
31 0 1 4.998979e+01 2.001488e+01 8.001598e+01
32 0 1 5.149230e+01 2.001134e+01 8.000789e+01
33 0 1 5.304478e+01 1.999930e+01 7.999635e+01
34 0 1 5.460558e+01 1.999258e+01 8.000641e+01
35 0 1 5.611765e+01 1.998612e+01 8.001721e+01
36 0 1 5.766405e+01 2.001761e+01 8.000000e+01
37 0 1 5.921618e+01 1.999959e+01 7.998782e+01
38 0 1 6.074362e+01 2.000735e+01 8.001266e+01
39 0 1 6.227707e+01 1.999066e+01 8.002013e+01
40 0 1 6.381689e+01 1.998143e+01 7.999118e+01
41 0 1 6.535316e+01 1.999234e+01 7.999403e+01
42 0 1 6.692695e+01 1.999853e+01 7.998129e+01
43 0 1 6.847067e+01 1.998613e+01 8.000934e+01
44 0 1 6.997245e+01 1.998900e+01 7.999106e+01
45 0 1 7.152876e+01 1.999149e+01 8.001721e+01
46 0 1 7.305202e+01 2.000864e+01 7.998236e+01
47 0 1 7.460448e+01 1.998459e+01 7.999341e+01
48 0 1 7.615146e+01 2.000069e+01 8.000636e+01
49 0 1 7.771078e+01 1.998983e+01 8.000290e+01
50 0 1 7.921572e+01 1.999725e+01 7.998268e+01
51 0 1 8.076064e+01 1.999089e+01 8.001904e+01
52 0 1 8.231425e+01 2.000864e+01 8.001118e+01
53 0 1 8.386562e+01 1.998670e+01 8.001949e+01
54 0 1 8.537792e+01 1.998493e+01 8.000056e+01
55 0 1 8.691374e+01 1.998140e+01 7.999110e+01
56 0 1 8.846886e+01 1.998137e+01 8.001062e+01
57 0 1 9.000974e+01 2.001405e+01 8.000421e+01
58 0 1 9.153889e+01 1.999878e+01 7.998238e+01
59 0 1 9.307713e+01 1.998034e+01 7.999202e+01
60 0 1 9.464877e+01 1.998133e+01 8.000534e+01
61 0 1 9.617891e+01 2.001994e+01 7.999307e+01
62 0 1 9.771905e+01 2.001614e+01 7.998053e+01
63 0 1 9.924364e+01 2.000366e+01 8.001056e+01
64 0 1 1.007884e+02 1.998322e+01 8.000639e+01
65 0 1 1.023163e+02 1.999491e+01 7.998340e+01
66 0 1 1.038589e+02 2.001852e+01 7.998813e+01
67 0 1 1.053901e+02 1.998774e+01 7.999164e+01
68 0 1 1.069495e+02 1.999056e+01 7.999879e+01
69 0 1 1.085041e+02 1.998527e+01 8.001067e+01
70 0 1 1.100159e+02 2.001715e+01 8.000822e+01
71 0 1 1.115687e+02 1.999810e+01 8.001947e+01
72 0 1 1.131220e+02 1.999837e+01 8.001640e+01
73 0 1 1.146530e+02 1.998740e+01 8.001619e+01
74 0 1 1.162087e+02 1.999707e+01 7.999417e+01
75 0 1 1.177284e+02 2.000773e+01 7.998047e+01
76 0 1 1.192713e+02 2.000971e+01 8.001585e+01
77 0 1 1.207921e+02 2.001874e+01 7.999651e+01
78 0 1 1.223457e+02 2.001326e+01 8.000963e+01
79 0 1 1.238961e+02 2.000546e+01 7.999217e+01
80 0 1 1.254379e+02 1.999994e+01 7.998692e+01
81 0 1 1.269752e+02 2.000475e+01 7.999458e+01
82 0 1 1.284944e+02 1.998555e+01 7.998615e+01
83 0 1 1.300409e+02 2.001179e+01 7.999796e+01
84 0 1 1.315853e+02 1.999808e+01 7.999788e+01
85 0 1 1.331247e+02 2.000399e+01 7.999730e+01
86 0 1 1.346604e+02 2.001450e+01 7.999973e+01
87 0 1 1.362019e+02 2.000190e+01 7.999080e+01
88 0 1 1.377697e+02 2.000399e+01 7.999701e+01
89 0 1 1.392785e+02 1.999880e+01 8.000723e+01
90 0 1 1.408147e+02 2.000900e+01 8.000230e+01
91 0 1 1.423524e+02 2.001667e+01 7.999641e+01
92 0 1 1.439085e+02 2.000550e+01 7.998166e+01
93 0 1 1.454512e+02 2.001863e+01 7.999181e+01
94 0 1 1.469741e+02 2.001804e+01 8.002046e+01
95 0 1 1.485256e+02 2.001574e+01 7.998146e+01
96 0 1 1.500564e+02 2.000076e+01 7.999464e+01
97 0 1 1.515924e+02 1.997949e+01 7.998674e+01
98 0 1 1.531416e+02 2.001770e+01 8.000803e+01
99 0 1 1.546766e+02 2.001505e+01 8.001811e+01
100 0 1 1.562147e+02 2.000893e+01 7.998715e+01
101 1 1 3.777925e+00 3.333239e+01 7.999825e+01
102 1 1 5.301782e+00 3.335312e+01 7.998827e+01
103 1 1 6.834519e+00 3.334968e+01 8.000479e+01
104 1 1 8.405509e+00 3.333866e+01 7.998695e+01
105 1 1 9.930137e+00 3.332498e+01 7.998761e+01
106 1 1 1.147070e+01 3.335126e+01 7.998680e+01
107 1 1 1.302586e+01 3.333448e+01 8.001877e+01
108 1 1 1.455038e+01 3.332811e+01 7.998727e+01
109 1 1 1.610084e+01 3.331360e+01 7.999797e+01
110 1 1 1.762126e+01 3.333944e+01 8.001628e+01
111 1 1 1.917038e+01 3.335193e+01 8.000197e+01
112 1 1 2.072522e+01 3.331997e+01 7.998491e+01
113 1 1 2.226139e+01 3.332353e+01 7.999602e+01
114 1 1 2.380766e+01 3.334537e+01 8.001765e+01
115 1 1 2.534441e+01 3.331857e+01 7.998085e+01
116 1 1 2.685838e+01 3.331297e+01 8.000456e+01
117 1 1 2.840824e+01 3.333126e+01 8.000887e+01
118 1 1 2.993675e+01 3.333389e+01 7.998323e+01
119 1 1 3.147337e+01 3.331811e+01 8.000041e+01
120 1 1 3.301144e+01 3.333966e+01 7.998683e+01
121 1 1 3.456812e+01 3.333465e+01 7.998126e+01
122 1 1 3.609486e+01 3.332318e+01 7.999208e+01
123 1 1 3.764735e+01 3.332261e+01 7.999782e+01
124 1 1 3.920516e+01 3.333146e+01 8.001463e+01
125 1 1 4.074731e+01 3.334140e+01 8.000394e+01
126 1 1 4.229088e+01 3.332576e+01 8.001016e+01
127 1 1 4.380088e+01 3.332014e+01 7.998064e+01
128 1 1 4.535292e+01 3.332680e+01 8.001668e+01
129 1 1 4.689480e+01 3.332708e+01 8.000131e+01
130 1 1 4.844894e+01 3.335048e+01 7.998859e+01
131 1 1 4.995137e+01 3.333567e+01 7.999513e+01
132 1 1 5.151921e+01 3.332671e+01 7.998727e+01
133 1 1 5.306066e+01 3.332809e+01 8.000198e+01
134 1 1 5.457536e+01 3.333371e+01 7.998204e+01
135 1 1 5.613475e+01 3.334904e+01 7.998953e+01
136 1 1 5.765440e+01 3.331536e+01 8.001126e+01
137 1 1 5.921294e+01 3.333774e+01 7.998424e+01
138 1 1 6.074499e+01 3.334255e+01 8.000687e+01
139 1 1 6.227167e+01 3.331716e+01 8.001344e+01
140 1 1 6.385072e+01 3.335205e+01 7.998360e+01
141 1 1 6.537788e+01 3.332441e+01 8.001826e+01
142 1 1 6.692318e+01 3.332614e+01 7.999091e+01
143 1 1 6.845204e+01 3.332109e+01 7.999422e+01
144 1 1 6.997143e+01 3.332482e+01 7.998941e+01
145 1 1 7.154418e+01 3.334829e+01 7.998029e+01
146 1 1 7.308705e+01 3.332547e+01 7.998538e+01
147 1 1 7.459616e+01 3.333365e+01 7.998515e+01
148 1 1 7.616039e+01 3.331740e+01 7.999710e+01
149 1 1 7.768913e+01 3.334256e+01 8.002063e+01
150 1 1 7.921467e+01 3.333316e+01 7.999014e+01
151 1 1 8.075575e+01 3.332746e+01 8.001419e+01
152 1 1 8.231132e+01 3.334843e+01 8.000195e+01
153 1 1 8.385064e+01 3.334544e+01 8.001306e+01
154 1 1 8.540168e+01 3.331553e+01 7.998038e+01
155 1 1 8.691577e+01 3.335218e+01 8.001923e+01
156 1 1 8.845825e+01 3.332009e+01 8.000305e+01
157 1 1 8.999416e+01 3.334786e+01 8.001964e+01
158 1 1 9.155055e+01 3.331607e+01 8.001355e+01
159 1 1 9.309870e+01 3.334648e+01 8.000841e+01
160 1 1 9.461843e+01 3.333312e+01 7.998306e+01
161 1 1 9.616007e+01 3.333737e+01 8.000574e+01
162 1 1 9.772391e+01 3.333735e+01 8.000992e+01
163 1 1 9.923001e+01 3.333557e+01 8.001791e+01
164 1 1 1.007882e+02 3.332150e+01 7.999425e+01
165 1 1 1.023098e+02 3.333540e+01 8.000273e+01
166 1 1 1.038893e+02 3.331332e+01 8.000133e+01
167 1 1 1.054276e+02 3.332043e+01 7.998912e+01
168 1 1 1.069385e+02 3.334433e+01 7.999158e+01
169 1 1 1.084844e+02 3.333703e+01 8.001595e+01
170 1 1 1.100387e+02 3.332386e+01 7.999762e+01
171 1 1 1.115844e+02 3.333679e+01 8.002002e+01
172 1 1 1.131065e+02 3.331762e+01 8.001691e+01
173 1 1 1.146585e+02 3.332090e+01 8.001445e+01
174 1 1 1.162086e+02 3.335041e+01 8.000624e+01
175 1 1 1.177484e+02 3.332601e+01 7.998215e+01
176 1 1 1.192777e+02 3.335161e+01 8.000432e+01
177 1 1 1.208150e+02 3.331920e+01 8.000189e+01
178 1 1 1.223310e+02 3.334289e+01 8.001840e+01
179 1 1 1.238851e+02 3.335380e+01 8.000554e+01
180 1 1 1.254180e+02 3.331716e+01 8.000592e+01
181 1 1 1.269852e+02 3.331899e+01 7.999962e+01
182 1 1 1.285142e+02 3.332796e+01 7.999765e+01
183 1 1 1.300643e+02 3.334996e+01 8.000691e+01
184 1 1 1.315810e+02 3.333261e+01 7.998438e+01
185 1 1 1.331263e+02 3.331784e+01 8.001741e+01
186 1 1 1.346718e+02 3.331416e+01 8.001433e+01
187 1 1 1.362222e+02 3.334039e+01 8.000108e+01
188 1 1 1.377686e+02 3.331376e+01 7.999113e+01
189 1 1 1.393015e+02 3.332838e+01 7.999820e+01
190 1 1 1.408130e+02 3.333990e+01 8.000940e+01
191 1 1 1.423594e+02 3.332533e+01 7.998552e+01
192 1 1 1.439267e+02 3.332877e+01 8.000676e+01
193 1 1 1.454550e+02 3.332051e+01 7.999551e+01
194 1 1 1.469868e+02 3.334056e+01 7.999803e+01
195 1 1 1.485158e+02 3.332063e+01 8.001077e+01
196 1 1 1.500749e+02 3.331795e+01 8.001604e+01
197 1 1 1.516117e+02 3.331430e+01 8.000708e+01
198 1 1 1.531328e+02 3.331394e+01 8.001236e+01
199 1 1 1.546817e+02 3.333002e+01 8.001831e+01
200 1 1 1.562132e+02 3.334845e+01 7.999081e+01
201 2 1 3.765237e+00 4.668326e+01 7.998734e+01
202 2 1 5.305374e+00 4.665203e+01 7.998975e+01
203 2 1 6.848226e+00 4.665124e+01 7.998730e+01
204 2 1 8.376806e+00 4.667664e+01 8.000117e+01
205 2 1 9.946698e+00 4.668115e+01 8.000789e+01
206 2 1 1.146977e+01 4.668539e+01 8.001802e+01
207 2 1 1.300840e+01 4.665119e+01 7.999388e+01
208 2 1 1.454514e+01 4.665131e+01 8.000102e+01
209 2 1 1.609847e+01 4.666360e+01 7.998524e+01
210 2 1 1.762750e+01 4.667033e+01 8.000385e+01
211 2 1 1.915899e+01 4.665672e+01 8.001527e+01
212 2 1 2.072191e+01 4.668702e+01 7.998712e+01
213 2 1 2.224027e+01 4.668575e+01 8.002055e+01
214 2 1 2.379775e+01 4.668646e+01 7.999182e+01
215 2 1 2.531738e+01 4.668243e+01 7.998853e+01
216 2 1 2.686272e+01 4.665496e+01 8.000078e+01
217 2 1 2.840456e+01 4.666558e+01 7.998451e+01
218 2 1 2.995868e+01 4.666438e+01 8.001956e+01
219 2 1 3.150407e+01 4.668280e+01 8.001422e+01
220 2 1 3.304340e+01 4.666782e+01 7.998434e+01
221 2 1 3.455055e+01 4.666524e+01 7.998161e+01
222 2 1 3.610600e+01 4.665318e+01 7.999394e+01
223 2 1 3.764049e+01 4.664628e+01 7.999803e+01
224 2 1 3.920470e+01 4.668604e+01 8.000902e+01
225 2 1 4.071387e+01 4.665310e+01 7.999425e+01
226 2 1 4.225905e+01 4.666324e+01 8.002061e+01
227 2 1 4.381285e+01 4.667963e+01 8.000352e+01
228 2 1 4.534731e+01 4.668509e+01 8.000598e+01
229 2 1 4.687753e+01 4.668287e+01 7.999315e+01
230 2 1 4.843386e+01 4.666558e+01 8.000110e+01
231 2 1 4.996955e+01 4.664790e+01 7.999759e+01
232 2 1 5.149733e+01 4.667060e+01 7.999303e+01
233 2 1 5.307064e+01 4.664998e+01 7.998436e+01
234 2 1 5.457640e+01 4.665425e+01 7.999890e+01
235 2 1 5.613192e+01 4.666216e+01 7.998615e+01
236 2 1 5.765228e+01 4.668724e+01 8.001701e+01
237 2 1 5.921414e+01 4.668550e+01 7.998280e+01
238 2 1 6.076489e+01 4.665487e+01 8.000929e+01
239 2 1 6.227375e+01 4.665385e+01 7.998967e+01
240 2 1 6.382419e+01 4.664615e+01 8.001268e+01
241 2 1 6.537318e+01 4.665503e+01 8.001318e+01
242 2 1 6.692212e+01 4.664995e+01 7.999088e+01
243 2 1 6.845689e+01 4.667958e+01 7.998315e+01
244 2 1 6.997897e+01 4.665137e+01 8.000568e+01
245 2 1 7.154720e+01 4.667244e+01 7.999294e+01
246 2 1 7.305452e+01 4.667583e+01 8.001645e+01
247 2 1 7.460651e+01 4.667447e+01 7.998643e+01
248 2 1 7.614624e+01 4.668563e+01 7.999625e+01
249 2 1 7.771088e+01 4.665044e+01 8.001706e+01
250 2 1 7.925072e+01 4.666398e+01 7.998201e+01
251 2 1 8.075109e+01 4.667026e+01 7.998830e+01
252 2 1 8.229449e+01 4.668444e+01 8.001976e+01
253 2 1 8.384876e+01 4.664640e+01 8.001942e+01
254 2 1 8.540018e+01 4.667257e+01 8.001727e+01
255 2 1 8.691909e+01 4.664721e+01 8.000610e+01
256 2 1 8.848086e+01 4.665720e+01 8.000656e+01
257 2 1 9.002941e+01 4.667933e+01 7.998805e+01
258 2 1 9.156980e+01 4.666565e+01 7.999562e+01
259 2 1 9.307526e+01 4.668449e+01 8.000896e+01
260 2 1 9.464237e+01 4.665901e+01 7.998697e+01
261 2 1 9.616505e+01 4.667962e+01 8.000372e+01
262 2 1 9.769270e+01 4.667098e+01 7.998236e+01
263 2 1 9.926817e+01 4.666691e+01 8.001915e+01
264 2 1 1.007708e+02 4.666213e+01 7.999352e+01
265 2 1 1.023139e+02 4.667478e+01 8.000006e+01
266 2 1 1.038815e+02 4.665787e+01 7.999736e+01
267 2 1 1.054219e+02 4.668596e+01 7.999889e+01
268 2 1 1.069433e+02 4.667624e+01 8.000089e+01
269 2 1 1.084765e+02 4.666843e+01 8.000276e+01
270 2 1 1.100359e+02 4.665281e+01 7.999443e+01
271 2 1 1.115583e+02 4.665773e+01 8.000455e+01
272 2 1 1.131115e+02 4.667213e+01 8.001396e+01
273 2 1 1.146670e+02 4.667245e+01 7.998747e+01
274 2 1 1.161939e+02 4.666008e+01 8.002031e+01
275 2 1 1.177235e+02 4.665622e+01 8.000734e+01
276 2 1 1.192695e+02 4.665409e+01 7.998909e+01
277 2 1 1.208064e+02 4.666970e+01 7.999612e+01
278 2 1 1.223709e+02 4.665239e+01 8.001776e+01
279 2 1 1.238957e+02 4.667833e+01 7.998137e+01
280 2 1 1.254185e+02 4.666140e+01 7.998492e+01
281 2 1 1.269542e+02 4.666162e+01 7.998970e+01
282 2 1 1.285038e+02 4.668204e+01 7.998097e+01
283 2 1 1.300393e+02 4.666280e+01 8.001236e+01
284 2 1 1.316099e+02 4.668330e+01 8.001913e+01
285 2 1 1.331342e+02 4.667762e+01 8.001729e+01
286 2 1 1.346646e+02 4.666172e+01 7.998085e+01
287 2 1 1.362025e+02 4.668170e+01 8.000066e+01
288 2 1 1.377395e+02 4.666472e+01 8.001985e+01
289 2 1 1.392892e+02 4.664919e+01 7.999028e+01
290 2 1 1.408199e+02 4.667402e+01 7.999428e+01
291 2 1 1.423867e+02 4.664844e+01 7.999086e+01
292 2 1 1.439033e+02 4.664811e+01 7.998396e+01
293 2 1 1.454572e+02 4.668314e+01 8.001930e+01
294 2 1 1.470007e+02 4.665335e+01 8.001991e+01
295 2 1 1.485180e+02 4.667495e+01 8.000870e+01
296 2 1 1.500788e+02 4.664699e+01 7.999625e+01
297 2 1 1.516163e+02 4.667598e+01 7.998804e+01
298 2 1 1.531634e+02 4.667763e+01 8.000105e+01
299 2 1 1.546787e+02 4.668211e+01 7.998450e+01
300 2 1 1.562309e+02 4.666445e+01 8.001469e+01
301 3 1 3.752506e+00 6.001049e+01 7.999329e+01
302 3 1 5.298211e+00 5.998891e+01 8.001234e+01
303 3 1 6.839919e+00 5.998598e+01 8.000758e+01
304 3 1 8.404113e+00 6.000588e+01 8.001950e+01
305 3 1 9.949031e+00 5.998563e+01 8.000180e+01
306 3 1 1.147084e+01 5.999223e+01 7.998189e+01
307 3 1 1.301558e+01 5.999389e+01 7.999847e+01
308 3 1 1.453720e+01 5.999909e+01 7.998421e+01
309 3 1 1.607248e+01 5.999423e+01 7.998587e+01
310 3 1 1.762617e+01 6.001432e+01 8.000156e+01
311 3 1 1.916399e+01 6.000606e+01 7.998964e+01
312 3 1 2.069307e+01 6.000811e+01 8.001289e+01
313 3 1 2.223536e+01 5.998290e+01 7.999375e+01
314 3 1 2.379707e+01 6.001334e+01 8.001741e+01
315 3 1 2.532891e+01 5.999429e+01 8.001993e+01
316 3 1 2.687998e+01 5.998480e+01 7.998976e+01
317 3 1 2.839319e+01 6.001545e+01 7.998624e+01
318 3 1 2.994851e+01 5.997938e+01 8.001205e+01
319 3 1 3.150745e+01 6.000343e+01 7.999785e+01
320 3 1 3.301566e+01 5.998941e+01 8.001871e+01
321 3 1 3.456859e+01 6.002038e+01 8.001364e+01
322 3 1 3.612785e+01 5.998074e+01 7.999403e+01
323 3 1 3.764558e+01 6.001315e+01 8.001311e+01
324 3 1 3.917843e+01 6.001888e+01 7.999481e+01
325 3 1 4.071603e+01 6.001540e+01 8.000710e+01
326 3 1 4.226352e+01 6.001617e+01 7.999780e+01
327 3 1 4.381718e+01 6.000290e+01 8.000684e+01
328 3 1 4.536013e+01 6.001703e+01 7.999550e+01
329 3 1 4.690610e+01 5.999470e+01 8.000758e+01
330 3 1 4.841436e+01 6.000912e+01 8.001346e+01
331 3 1 4.996730e+01 5.999652e+01 8.000664e+01
332 3 1 5.152904e+01 5.999204e+01 8.001671e+01
333 3 1 5.306613e+01 6.001311e+01 8.000226e+01
334 3 1 5.460563e+01 5.998454e+01 8.001799e+01
335 3 1 5.611171e+01 6.000848e+01 8.000287e+01
336 3 1 5.768560e+01 6.000603e+01 7.998709e+01
337 3 1 5.922363e+01 5.998290e+01 8.000853e+01
338 3 1 6.073456e+01 6.002012e+01 7.999310e+01
339 3 1 6.229763e+01 6.001555e+01 8.000920e+01
340 3 1 6.383014e+01 6.001994e+01 7.999626e+01
341 3 1 6.535657e+01 5.998694e+01 7.998956e+01
342 3 1 6.689690e+01 6.000955e+01 8.000314e+01
343 3 1 6.846762e+01 5.999400e+01 7.998535e+01
344 3 1 6.999965e+01 6.001163e+01 7.998854e+01
345 3 1 7.154240e+01 5.999699e+01 7.999875e+01
346 3 1 7.308709e+01 6.000133e+01 7.998610e+01
347 3 1 7.462669e+01 6.000787e+01 7.999117e+01
348 3 1 7.615199e+01 6.001381e+01 8.000211e+01
349 3 1 7.768464e+01 6.000156e+01 8.001614e+01
350 3 1 7.923080e+01 5.998025e+01 7.999519e+01
351 3 1 8.078116e+01 6.002044e+01 8.001439e+01
352 3 1 8.230276e+01 6.000685e+01 7.998935e+01
353 3 1 8.386275e+01 5.999561e+01 7.998947e+01
354 3 1 8.537914e+01 5.999502e+01 8.002007e+01
355 3 1 8.693978e+01 5.999545e+01 8.001959e+01
356 3 1 8.845982e+01 5.999390e+01 8.000223e+01
357 3 1 9.000019e+01 5.998102e+01 8.000961e+01
358 3 1 9.153582e+01 5.999899e+01 8.001674e+01
359 3 1 9.310730e+01 6.001485e+01 7.998572e+01
360 3 1 9.461221e+01 6.000024e+01 7.999881e+01
361 3 1 9.615057e+01 6.001983e+01 7.998920e+01
362 3 1 9.771461e+01 5.999532e+01 8.000264e+01
363 3 1 9.925485e+01 5.998995e+01 7.999086e+01
364 3 1 1.007988e+02 6.001470e+01 8.000659e+01
365 3 1 1.023260e+02 5.997993e+01 7.998878e+01
366 3 1 1.038689e+02 6.000698e+01 8.001076e+01
367 3 1 1.054130e+02 6.000510e+01 7.998178e+01
368 3 1 1.069497e+02 5.998296e+01 7.998007e+01
369 3 1 1.084757e+02 5.999172e+01 8.001204e+01
370 3 1 1.100143e+02 5.998370e+01 8.000427e+01
371 3 1 1.115768e+02 6.000452e+01 8.000316e+01
372 3 1 1.131259e+02 6.001389e+01 8.001941e+01
373 3 1 1.146460e+02 5.998801e+01 7.998672e+01
374 3 1 1.162049e+02 6.001558e+01 8.000082e+01
375 3 1 1.177161e+02 6.000867e+01 8.001218e+01
376 3 1 1.192861e+02 5.999739e+01 7.998869e+01
377 3 1 1.208065e+02 6.000144e+01 7.999037e+01
378 3 1 1.223327e+02 5.998109e+01 8.000012e+01
379 3 1 1.239011e+02 6.000364e+01 7.999097e+01
380 3 1 1.254174e+02 5.998302e+01 7.999496e+01
381 3 1 1.269791e+02 5.999551e+01 7.998888e+01
382 3 1 1.284960e+02 6.000224e+01 8.000220e+01
383 3 1 1.300504e+02 5.998846e+01 8.000826e+01
384 3 1 1.315719e+02 6.000986e+01 8.001845e+01
385 3 1 1.331401e+02 5.998304e+01 7.998154e+01
386 3 1 1.346498e+02 5.999744e+01 8.001585e+01
387 3 1 1.362247e+02 5.999359e+01 7.999886e+01
388 3 1 1.377361e+02 6.001179e+01 8.001382e+01
389 3 1 1.392856e+02 6.000904e+01 7.999187e+01
390 3 1 1.408340e+02 5.999154e+01 8.000145e+01
391 3 1 1.423520e+02 6.000987e+01 7.999467e+01
392 3 1 1.439069e+02 5.999873e+01 8.001196e+01
393 3 1 1.454702e+02 6.001169e+01 7.999471e+01
394 3 1 1.469884e+02 5.998927e+01 7.998189e+01
395 3 1 1.485137e+02 5.999831e+01 7.999106e+01
396 3 1 1.500835e+02 5.998597e+01 7.998427e+01
397 3 1 1.516248e+02 6.001822e+01 7.999548e+01
398 3 1 1.531498e+02 6.000291e+01 7.999110e+01
399 3 1 1.547022e+02 6.000464e+01 7.998184e+01
400 3 1 1.562222e+02 6.001678e+01 8.001408e+01
401 4 1 3.777105e+00 7.334483e+01 7.999905e+01
402 4 1 5.292286e+00 7.334019e+01 7.998514e+01
403 4 1 6.844163e+00 7.332587e+01 7.999831e+01
404 4 1 8.401074e+00 7.333504e+01 7.998492e+01
405 4 1 9.918705e+00 7.335171e+01 7.998970e+01
406 4 1 1.149081e+01 7.332928e+01 8.001398e+01
407 4 1 1.300773e+01 7.332957e+01 8.001825e+01
408 4 1 1.454869e+01 7.334306e+01 7.999843e+01
409 4 1 1.609732e+01 7.334843e+01 7.999455e+01
410 4 1 1.764577e+01 7.335342e+01 8.001128e+01
411 4 1 1.918297e+01 7.333628e+01 7.998450e+01
412 4 1 2.069746e+01 7.333801e+01 8.001312e+01
413 4 1 2.223127e+01 7.331556e+01 7.999345e+01
414 4 1 2.377444e+01 7.331913e+01 8.001222e+01
415 4 1 2.534538e+01 7.332641e+01 7.999568e+01
416 4 1 2.686826e+01 7.335036e+01 7.998282e+01
417 4 1 2.840295e+01 7.331658e+01 8.000560e+01
418 4 1 2.996103e+01 7.332439e+01 7.998380e+01
419 4 1 3.148857e+01 7.331672e+01 7.998872e+01
420 4 1 3.303927e+01 7.334539e+01 8.001395e+01
421 4 1 3.458093e+01 7.334162e+01 8.000372e+01
422 4 1 3.610391e+01 7.331532e+01 7.999182e+01
423 4 1 3.765154e+01 7.334165e+01 8.001088e+01
424 4 1 3.919341e+01 7.334718e+01 8.000905e+01
425 4 1 4.072112e+01 7.331898e+01 7.998225e+01
426 4 1 4.226263e+01 7.331844e+01 7.999632e+01
427 4 1 4.379770e+01 7.331675e+01 8.000711e+01
428 4 1 4.535334e+01 7.334484e+01 7.999179e+01
429 4 1 4.688559e+01 7.331556e+01 7.998582e+01
430 4 1 4.841780e+01 7.332375e+01 7.998885e+01
431 4 1 4.998431e+01 7.334136e+01 7.999606e+01
432 4 1 5.150343e+01 7.333259e+01 7.999646e+01
433 4 1 5.305316e+01 7.332624e+01 7.998030e+01
434 4 1 5.460790e+01 7.334913e+01 8.001013e+01
435 4 1 5.611226e+01 7.334347e+01 7.999669e+01
436 4 1 5.768526e+01 7.333158e+01 7.999619e+01
437 4 1 5.922956e+01 7.332241e+01 8.001308e+01
438 4 1 6.075730e+01 7.333872e+01 8.000085e+01
439 4 1 6.229884e+01 7.331834e+01 8.001299e+01
440 4 1 6.381535e+01 7.334985e+01 8.000580e+01
441 4 1 6.538012e+01 7.334315e+01 8.000313e+01
442 4 1 6.690654e+01 7.333311e+01 7.998091e+01
443 4 1 6.843400e+01 7.333086e+01 8.001480e+01
444 4 1 6.998821e+01 7.331821e+01 7.999936e+01
445 4 1 7.153308e+01 7.333019e+01 8.000435e+01
446 4 1 7.308434e+01 7.333411e+01 7.998990e+01
447 4 1 7.459196e+01 7.334837e+01 8.001967e+01
448 4 1 7.614449e+01 7.333506e+01 7.999155e+01
449 4 1 7.768568e+01 7.332572e+01 7.998680e+01
450 4 1 7.921253e+01 7.334237e+01 7.998247e+01
451 4 1 8.078267e+01 7.331579e+01 8.001645e+01
452 4 1 8.232818e+01 7.331301e+01 8.001253e+01
453 4 1 8.386147e+01 7.331966e+01 8.001393e+01
454 4 1 8.537593e+01 7.332708e+01 8.000418e+01
455 4 1 8.694271e+01 7.334686e+01 8.001184e+01
456 4 1 8.846404e+01 7.333628e+01 8.002034e+01
457 4 1 8.999397e+01 7.334745e+01 8.001253e+01
458 4 1 9.154668e+01 7.334763e+01 7.999132e+01
459 4 1 9.310782e+01 7.334414e+01 7.998035e+01
460 4 1 9.461794e+01 7.334686e+01 8.000676e+01
461 4 1 9.616827e+01 7.333903e+01 7.999069e+01
462 4 1 9.768972e+01 7.334718e+01 8.000580e+01
463 4 1 9.925688e+01 7.334188e+01 8.002020e+01
464 4 1 1.007884e+02 7.333825e+01 7.999715e+01
465 4 1 1.023189e+02 7.333540e+01 8.001535e+01
466 4 1 1.038579e+02 7.333280e+01 8.001050e+01
467 4 1 1.054183e+02 7.332670e+01 8.001434e+01
468 4 1 1.069598e+02 7.335317e+01 8.002023e+01
469 4 1 1.084779e+02 7.333447e+01 7.999651e+01
470 4 1 1.100356e+02 7.333710e+01 7.998134e+01
471 4 1 1.115828e+02 7.335206e+01 7.999348e+01
472 4 1 1.130920e+02 7.334853e+01 8.000012e+01
473 4 1 1.146479e+02 7.335346e+01 8.002003e+01
474 4 1 1.161988e+02 7.331600e+01 8.001894e+01
475 4 1 1.177448e+02 7.335078e+01 7.998427e+01
476 4 1 1.192627e+02 7.332101e+01 8.000481e+01
477 4 1 1.208208e+02 7.333199e+01 8.001534e+01
478 4 1 1.223509e+02 7.334487e+01 7.999617e+01
479 4 1 1.239023e+02 7.334129e+01 8.000542e+01
480 4 1 1.254161e+02 7.333196e+01 8.000542e+01
481 4 1 1.269676e+02 7.334795e+01 7.998097e+01
482 4 1 1.285119e+02 7.331315e+01 8.001289e+01
483 4 1 1.300693e+02 7.331538e+01 7.998006e+01
484 4 1 1.315907e+02 7.332191e+01 8.001564e+01
485 4 1 1.331416e+02 7.332336e+01 8.001013e+01
486 4 1 1.346666e+02 7.331951e+01 8.001314e+01
487 4 1 1.362078e+02 7.332824e+01 8.000060e+01
488 4 1 1.377575e+02 7.331731e+01 8.000786e+01
489 4 1 1.392889e+02 7.332421e+01 7.999791e+01
490 4 1 1.408166e+02 7.331676e+01 8.001132e+01
491 4 1 1.423688e+02 7.333852e+01 8.001349e+01
492 4 1 1.439269e+02 7.332070e+01 8.000398e+01
493 4 1 1.454303e+02 7.332909e+01 7.999986e+01
494 4 1 1.469738e+02 7.332250e+01 8.000262e+01
495 4 1 1.485332e+02 7.334724e+01 7.998317e+01
496 4 1 1.500721e+02 7.333114e+01 7.999908e+01
497 4 1 1.516026e+02 7.332946e+01 8.000911e+01
498 4 1 1.531414e+02 7.332723e+01 7.999899e+01
499 4 1 1.546747e+02 7.333044e+01 8.000757e+01
500 4 1 1.562290e+02 7.334405e+01 8.000443e+01
501 5 1 3.753298e+00 8.665984e+01 7.999226e+01
502 5 1 5.307654e+00 8.668424e+01 7.998027e+01
503 5 1 6.836326e+00 8.667106e+01 8.001553e+01
504 5 1 8.385182e+00 8.668700e+01 7.999371e+01
505 5 1 9.933864e+00 8.665722e+01 8.000783e+01
506 5 1 1.147832e+01 8.665017e+01 7.998547e+01
507 5 1 1.301957e+01 8.666921e+01 8.001015e+01
508 5 1 1.453743e+01 8.665977e+01 7.998628e+01
509 5 1 1.610070e+01 8.667844e+01 7.999413e+01
510 5 1 1.763264e+01 8.667416e+01 7.998183e+01
511 5 1 1.917155e+01 8.667370e+01 7.998990e+01
512 5 1 2.069423e+01 8.667020e+01 7.998859e+01
513 5 1 2.226941e+01 8.668223e+01 8.000211e+01
514 5 1 2.380421e+01 8.665108e+01 7.998801e+01
515 5 1 2.532256e+01 8.668401e+01 7.999582e+01
516 5 1 2.687603e+01 8.665327e+01 8.000598e+01
517 5 1 2.842327e+01 8.665664e+01 8.001212e+01
518 5 1 2.993007e+01 8.667496e+01 7.998033e+01
519 5 1 3.149597e+01 8.666460e+01 8.000702e+01
520 5 1 3.303646e+01 8.665794e+01 8.000922e+01
521 5 1 3.455507e+01 8.667399e+01 8.001083e+01
522 5 1 3.613060e+01 8.664816e+01 8.001033e+01
523 5 1 3.766693e+01 8.668613e+01 7.998682e+01
524 5 1 3.918080e+01 8.666311e+01 8.000755e+01
525 5 1 4.071600e+01 8.667812e+01 7.999196e+01
526 5 1 4.227644e+01 8.665588e+01 8.000536e+01
527 5 1 4.382339e+01 8.665258e+01 8.001910e+01
528 5 1 4.534671e+01 8.665499e+01 7.998566e+01
529 5 1 4.687703e+01 8.668501e+01 8.001857e+01
530 5 1 4.844469e+01 8.668464e+01 7.998447e+01
531 5 1 4.997434e+01 8.667826e+01 8.000264e+01
532 5 1 5.151851e+01 8.668624e+01 7.999551e+01
533 5 1 5.303180e+01 8.665578e+01 7.998814e+01
534 5 1 5.458587e+01 8.666810e+01 7.999390e+01
535 5 1 5.613515e+01 8.665766e+01 7.998012e+01
536 5 1 5.768829e+01 8.668438e+01 7.998920e+01
537 5 1 5.919090e+01 8.664950e+01 7.998465e+01
538 5 1 6.074863e+01 8.666038e+01 7.998509e+01
539 5 1 6.229880e+01 8.664890e+01 8.001530e+01
540 5 1 6.383712e+01 8.665723e+01 8.000229e+01
541 5 1 6.536432e+01 8.665217e+01 8.001790e+01
542 5 1 6.692931e+01 8.665484e+01 8.000653e+01
543 5 1 6.847023e+01 8.668058e+01 7.999081e+01
544 5 1 7.000855e+01 8.666210e+01 8.000459e+01
545 5 1 7.154043e+01 8.665110e+01 7.999677e+01
546 5 1 7.305959e+01 8.667661e+01 8.000060e+01
547 5 1 7.460846e+01 8.665350e+01 8.000189e+01
548 5 1 7.615552e+01 8.667467e+01 8.000841e+01
549 5 1 7.768127e+01 8.665220e+01 7.999458e+01
550 5 1 7.921769e+01 8.666145e+01 7.999417e+01
551 5 1 8.077027e+01 8.665473e+01 7.999620e+01
552 5 1 8.232562e+01 8.668595e+01 8.000650e+01
553 5 1 8.383271e+01 8.665086e+01 7.999719e+01
554 5 1 8.540617e+01 8.666912e+01 7.998457e+01
555 5 1 8.693985e+01 8.664986e+01 7.998851e+01
556 5 1 8.846693e+01 8.665841e+01 8.000923e+01
557 5 1 8.999568e+01 8.665903e+01 7.999713e+01
558 5 1 9.155088e+01 8.667196e+01 7.999309e+01
559 5 1 9.307717e+01 8.667002e+01 8.000034e+01
560 5 1 9.464243e+01 8.664748e+01 7.999065e+01
561 5 1 9.618235e+01 8.666181e+01 8.001802e+01
562 5 1 9.769982e+01 8.666460e+01 7.998328e+01
563 5 1 9.925261e+01 8.666608e+01 8.000276e+01
564 5 1 1.007697e+02 8.668340e+01 7.999818e+01
565 5 1 1.023399e+02 8.666096e+01 7.998476e+01
566 5 1 1.038583e+02 8.667103e+01 7.998686e+01
567 5 1 1.053913e+02 8.667860e+01 8.000893e+01
568 5 1 1.069635e+02 8.666747e+01 7.998460e+01
569 5 1 1.084994e+02 8.667028e+01 7.998039e+01
570 5 1 1.100223e+02 8.668233e+01 7.998538e+01
571 5 1 1.115735e+02 8.667883e+01 7.998306e+01
572 5 1 1.131200e+02 8.667257e+01 8.001387e+01
573 5 1 1.146618e+02 8.666863e+01 7.998456e+01
574 5 1 1.161824e+02 8.664729e+01 8.000409e+01
575 5 1 1.177159e+02 8.665127e+01 7.998296e+01
576 5 1 1.192686e+02 8.665760e+01 7.998334e+01
577 5 1 1.208272e+02 8.665191e+01 8.001599e+01
578 5 1 1.223699e+02 8.667852e+01 8.001707e+01
579 5 1 1.238704e+02 8.665818e+01 8.001802e+01
580 5 1 1.254436e+02 8.667501e+01 8.001059e+01
581 5 1 1.269523e+02 8.665269e+01 7.998865e+01
582 5 1 1.285119e+02 8.665693e+01 8.001961e+01
583 5 1 1.300364e+02 8.668609e+01 7.999770e+01
584 5 1 1.315942e+02 8.668034e+01 8.000319e+01
585 5 1 1.331439e+02 8.666451e+01 7.999228e+01
586 5 1 1.346721e+02 8.666621e+01 8.001859e+01
587 5 1 1.362138e+02 8.666213e+01 8.001443e+01
588 5 1 1.377634e+02 8.664747e+01 7.999739e+01
589 5 1 1.392782e+02 8.666871e+01 7.998514e+01
590 5 1 1.408319e+02 8.667017e+01 8.001117e+01
591 5 1 1.423654e+02 8.668157e+01 8.000328e+01
592 5 1 1.439265e+02 8.667858e+01 7.998589e+01
593 5 1 1.454592e+02 8.668116e+01 8.001605e+01
594 5 1 1.469793e+02 8.667069e+01 8.000555e+01
595 5 1 1.485426e+02 8.667330e+01 8.001524e+01
596 5 1 1.500866e+02 8.666004e+01 7.999394e+01
597 5 1 1.516307e+02 8.667823e+01 8.001057e+01
598 5 1 1.531436e+02 8.666167e+01 8.001756e+01
599 5 1 1.547031e+02 8.668688e+01 7.999298e+01
600 5 1 1.562467e+02 8.664733e+01 8.000125e+01
601 6 1 3.786547e+00 1.000070e+02 7.999968e+01
602 6 1 5.292750e+00 9.998013e+01 8.001753e+01
603 6 1 6.845832e+00 9.998088e+01 7.998955e+01
604 6 1 8.397534e+00 9.998006e+01 8.000240e+01
605 6 1 9.942096e+00 9.998573e+01 7.999939e+01
606 6 1 1.145909e+01 1.000093e+02 8.000774e+01
607 6 1 1.301659e+01 9.998320e+01 8.001398e+01
608 6 1 1.453990e+01 1.000135e+02 7.999632e+01
609 6 1 1.610933e+01 1.000108e+02 7.999289e+01
610 6 1 1.762647e+01 1.000161e+02 8.000764e+01
611 6 1 1.918203e+01 1.000136e+02 8.001649e+01
612 6 1 2.071556e+01 1.000169e+02 7.999147e+01
613 6 1 2.223739e+01 9.997932e+01 8.001999e+01
614 6 1 2.380546e+01 9.998599e+01 8.001727e+01
615 6 1 2.533934e+01 9.998022e+01 8.001894e+01
616 6 1 2.686703e+01 9.998438e+01 8.001830e+01
617 6 1 2.840142e+01 9.998169e+01 8.001073e+01
618 6 1 2.996168e+01 1.000175e+02 7.998358e+01
619 6 1 3.149056e+01 1.000189e+02 8.001562e+01
620 6 1 3.302913e+01 9.998090e+01 8.000388e+01
621 6 1 3.455887e+01 9.999831e+01 7.999664e+01
622 6 1 3.609124e+01 1.000146e+02 8.001091e+01
623 6 1 3.766866e+01 1.000011e+02 8.000548e+01
624 6 1 3.919614e+01 1.000144e+02 8.001277e+01
625 6 1 4.073898e+01 9.998109e+01 8.001643e+01
626 6 1 4.229007e+01 9.998637e+01 8.000159e+01
627 6 1 4.382437e+01 9.998247e+01 8.000578e+01
628 6 1 4.534682e+01 9.999942e+01 7.998651e+01
629 6 1 4.690412e+01 9.998785e+01 7.999991e+01
630 6 1 4.843730e+01 1.000080e+02 7.999980e+01
631 6 1 4.997028e+01 1.000198e+02 8.000906e+01
632 6 1 5.149929e+01 9.998070e+01 7.999626e+01
633 6 1 5.303938e+01 1.000058e+02 8.001042e+01
634 6 1 5.457967e+01 9.998561e+01 7.999350e+01
635 6 1 5.614748e+01 9.999625e+01 8.001085e+01