ITEM: TIMESTEP
1
ITEM: NUMBER OF ATOMS
1000
ITEM: BOX BOUNDS pp pp pp
     -8.000000E+01       8.000000E+01
     -8.000000E+01       8.000000E+01
     -8.000000E+01       8.000000E+01
ITEM: ATOMS id mol type xu yu zu
1 0 1 3.783261e+00 1.997922e+01 8.000447e+01
2 0 1 5.310932e+00 2.001839e+01 8.000720e+01
3 0 1 6.855494e+00 2.000053e+01 8.000212e+01
4 0 1 8.384716e+00 1.999152e+01 7.999736e+01
5 0 1 9.922565e+00 1.998417e+01 8.001534e+01
6 0 1 1.145163e+01 1.998421e+01 7.999506e+01
7 0 1 1.300986e+01 1.998018e+01 8.001031e+01
8 0 1 1.454957e+01 2.000183e+01 8.000398e+01
9 0 1 1.610179e+01 1.999710e+01 8.001956e+01
10 0 1 1.763444e+01 2.001164e+01 7.998514e+01
11 0 1 1.918303e+01 2.001105e+01 7.999518e+01
12 0 1 2.070056e+01 1.999102e+01 8.001300e+01
13 0 1 2.224881e+01 1.998140e+01 8.000795e+01
14 0 1 2.377035e+01 1.999015e+01 7.999625e+01
15 0 1 2.533726e+01 1.999178e+01 8.000751e+01
16 0 1 2.689075e+01 1.998605e+01 8.000117e+01
17 0 1 2.841174e+01 2.001169e+01 7.997995e+01
18 0 1 2.996318e+01 1.998853e+01 8.000989e+01
19 0 1 3.149043e+01 2.001344e+01 7.998532e+01
20 0 1 3.303299e+01 2.001309e+01 8.001674e+01
21 0 1 3.456363e+01 2.000759e+01 8.001555e+01
22 0 1 3.610352e+01 2.000433e+01 7.998958e+01
23 0 1 3.765239e+01 1.999091e+01 7.998798e+01
24 0 1 3.917300e+01 2.000679e+01 7.999065e+01
25 0 1 4.070985e+01 1.998908e+01 8.001942e+01
26 0 1 4.226897e+01 2.000519e+01 8.000815e+01
27 0 1 4.380613e+01 2.001897e+01 7.999606e+01
28 0 1 4.533661e+01 2.001691e+01 7.998398e+01
29 0 1 4.688961e+01 2.000589e+01 8.000093e+01
30 0 1 4.841460e+01 1.999445e+01 8.000067e+01
31 0 1 4.997213e+01 1.998554e+01 7.998044e+01
32 0 1 5.152090e+01 1.998941e+01 8.001183e+01
33 0 1 5.304472e+01 2.001667e+01 8.001346e+01
34 0 1 5.459967e+01 1.999798e+01 8.001918e+01
35 0 1 5.612575e+01 1.998484e+01 7.998151e+01
36 0 1 5.766378e+01 2.000145e+01 7.999911e+01
37 0 1 5.918973e+01 1.998197e+01 7.998163e+01
38 0 1 6.075638e+01 2.001814e+01 8.001616e+01
39 0 1 6.230196e+01 1.999377e+01 7.999873e+01
40 0 1 6.384417e+01 2.000506e+01 7.998447e+01
41 0 1 6.535600e+01 2.000155e+01 7.999870e+01
42 0 1 6.689804e+01 1.999265e+01 7.999352e+01
43 0 1 6.843280e+01 2.000335e+01 7.997931e+01
44 0 1 6.998601e+01 2.000363e+01 8.001814e+01
45 0 1 7.150975e+01 2.000296e+01 7.999876e+01
46 0 1 7.305215e+01 1.999192e+01 8.001135e+01
47 0 1 7.462537e+01 2.000954e+01 8.000562e+01
48 0 1 7.615656e+01 1.997904e+01 8.001529e+01
49 0 1 7.767100e+01 2.001609e+01 8.001657e+01
50 0 1 7.922256e+01 1.998764e+01 8.001822e+01
51 0 1 8.077498e+01 2.000757e+01 8.001022e+01
52 0 1 8.230946e+01 2.000795e+01 7.998563e+01
53 0 1 8.386763e+01 1.999544e+01 7.998816e+01
54 0 1 8.540080e+01 2.000001e+01 7.998940e+01
55 0 1 8.694595e+01 1.999829e+01 8.002005e+01
56 0 1 8.846107e+01 2.001646e+01 7.999155e+01
57 0 1 9.002402e+01 2.000297e+01 7.998781e+01
58 0 1 9.154652e+01 1.998556e+01 7.998698e+01
59 0 1 9.309107e+01 1.998835e+01 8.000485e+01
60 0 1 9.461533e+01 1.998851e+01 8.001648e+01
61 0 1 9.616024e+01 2.001289e+01 8.000793e+01
62 0 1 9.773058e+01 1.998714e+01 8.000066e+01
63 0 1 9.925269e+01 1.999920e+01 8.001729e+01
64 0 1 1.008002e+02 1.999178e+01 8.000812e+01
65 0 1 1.023219e+02 2.000918e+01 7.998300e+01
66 0 1 1.038613e+02 2.000767e+01 8.000882e+01
67 0 1 1.053992e+02 1.999286e+01 8.001703e+01
68 0 1 1.069650e+02 1.999088e+01 8.001205e+01
69 0 1 1.085075e+02 2.001947e+01 7.998659e+01
70 0 1 1.100496e+02 2.001727e+01 8.001659e+01
71 0 1 1.115741e+02 1.998574e+01 8.001042e+01
72 0 1 1.131065e+02 1.998272e+01 8.000366e+01
73 0 1 1.146427e+02 2.000949e+01 7.998425e+01
74 0 1 1.161849e+02 2.001326e+01 8.000272e+01
75 0 1 1.177304e+02 1.999543e+01 8.001717e+01
76 0 1 1.192605e+02 1.998413e+01 7.999622e+01
77 0 1 1.208149e+02 2.000885e+01 8.000838e+01
78 0 1 1.223469e+02 1.998135e+01 7.998265e+01
79 0 1 1.238737e+02 2.001513e+01 7.999702e+01
80 0 1 1.254107e+02 2.000467e+01 8.001805e+01
81 0 1 1.269575e+02 1.999035e+01 8.001067e+01
82 0 1 1.285120e+02 2.000975e+01 7.998801e+01
83 0 1 1.300680e+02 2.001668e+01 8.001076e+01
84 0 1 1.315966e+02 2.001796e+01 7.998767e+01
85 0 1 1.331179e+02 2.000555e+01 7.999718e+01
86 0 1 1.346884e+02 1.999966e+01 7.999298e+01
87 0 1 1.361931e+02 2.001031e+01 8.000754e+01
88 0 1 1.377609e+02 1.999257e+01 7.998819e+01
89 0 1 1.393056e+02 1.999277e+01 7.999408e+01
90 0 1 1.408486e+02 1.999322e+01 7.999881e+01
91 0 1 1.423723e+02 2.000224e+01 7.998674e+01
92 0 1 1.439123e+02 1.999857e+01 8.001114e+01
93 0 1 1.454587e+02 1.998068e+01 8.000241e+01
94 0 1 1.470086e+02 1.999623e+01 8.001421e+01
95 0 1 1.485313e+02 1.999455e+01 8.002042e+01
96 0 1 1.500640e+02 2.001244e+01 8.001787e+01
97 0 1 1.516303e+02 2.000317e+01 8.001750e+01
98 0 1 1.531661e+02 2.000816e+01 8.001611e+01
99 0 1 1.546859e+02 2.001982e+01 8.000890e+01
100 0 1 1.562359e+02 1.999606e+01 7.999792e+01
101 1 1 3.789640e+00 3.331919e+01 7.999489e+01
102 1 1 5.321241e+00 3.335297e+01 8.001814e+01
103 1 1 6.842930e+00 3.335044e+01 8.000293e+01
104 1 1 8.402336e+00 3.335264e+01 7.998088e+01
105 1 1 9.916142e+00 3.331972e+01 8.001363e+01
106 1 1 1.148890e+01 3.332561e+01 8.000374e+01
107 1 1 1.302602e+01 3.333818e+01 8.000734e+01
108 1 1 1.453676e+01 3.332125e+01 8.000314e+01
109 1 1 1.609160e+01 3.333200e+01 7.998201e+01
110 1 1 1.761578e+01 3.332056e+01 7.999666e+01
111 1 1 1.917725e+01 3.331423e+01 7.999435e+01
112 1 1 2.072712e+01 3.332109e+01 8.001918e+01
113 1 1 2.226224e+01 3.333437e+01 8.000916e+01
114 1 1 2.379805e+01 3.332003e+01 7.998035e+01
115 1 1 2.532183e+01 3.333997e+01 8.002048e+01
116 1 1 2.687744e+01 3.334610e+01 7.999535e+01
117 1 1 2.840376e+01 3.331399e+01 7.999811e+01
118 1 1 2.995807e+01 3.333801e+01 8.001129e+01
119 1 1 3.147112e+01 3.333798e+01 8.001302e+01
120 1 1 3.304016e+01 3.332787e+01 8.001965e+01
121 1 1 3.456717e+01 3.334235e+01 8.001149e+01
122 1 1 3.610973e+01 3.332997e+01 8.000230e+01
123 1 1 3.764688e+01 3.332871e+01 8.000549e+01
124 1 1 3.920868e+01 3.333001e+01 8.000728e+01
125 1 1 4.074911e+01 3.333691e+01 8.001085e+01
126 1 1 4.225418e+01 3.333312e+01 7.998952e+01
127 1 1 4.382026e+01 3.334105e+01 8.000816e+01
128 1 1 4.533059e+01 3.333043e+01 8.000404e+01
129 1 1 4.689012e+01 3.333538e+01 8.000978e+01
130 1 1 4.840989e+01 3.333625e+01 8.000140e+01
131 1 1 4.998896e+01 3.331827e+01 8.001292e+01
132 1 1 5.152472e+01 3.333319e+01 7.999380e+01
133 1 1 5.305464e+01 3.334950e+01 8.001576e+01
134 1 1 5.458033e+01 3.335071e+01 7.999612e+01
135 1 1 5.612884e+01 3.334791e+01 7.999748e+01
136 1 1 5.766869e+01 3.332607e+01 8.001167e+01
137 1 1 5.921774e+01 3.334880e+01 7.998811e+01
138 1 1 6.074560e+01 3.333429e+01 7.998546e+01
139 1 1 6.227885e+01 3.334061e+01 8.000914e+01
140 1 1 6.383120e+01 3.333317e+01 7.998190e+01
141 1 1 6.537996e+01 3.331276e+01 7.999118e+01
142 1 1 6.690492e+01 3.333466e+01 7.998096e+01
143 1 1 6.843389e+01 3.334802e+01 7.998894e+01
144 1 1 6.997346e+01 3.333119e+01 8.001959e+01
145 1 1 7.151162e+01 3.334739e+01 8.000812e+01
146 1 1 7.307920e+01 3.335090e+01 7.998137e+01
147 1 1 7.459097e+01 3.332032e+01 7.999536e+01
148 1 1 7.614395e+01 3.332091e+01 8.000970e+01
149 1 1 7.768192e+01 3.332494e+01 7.999646e+01
150 1 1 7.923740e+01 3.332695e+01 8.000600e+01
151 1 1 8.077203e+01 3.332634e+01 8.001593e+01
152 1 1 8.231926e+01 3.334931e+01 7.997948e+01
153 1 1 8.385604e+01 3.333367e+01 8.000343e+01
154 1 1 8.540203e+01 3.333446e+01 8.001830e+01
155 1 1 8.693929e+01 3.335089e+01 8.000349e+01
156 1 1 8.846970e+01 3.332012e+01 7.997948e+01
157 1 1 8.999980e+01 3.333081e+01 8.000110e+01
158 1 1 9.156513e+01 3.334243e+01 7.997980e+01
159 1 1 9.310221e+01 3.334822e+01 8.000679e+01
160 1 1 9.464660e+01 3.331952e+01 7.999809e+01
161 1 1 9.618601e+01 3.333720e+01 7.998285e+01
162 1 1 9.770660e+01 3.332210e+01 7.999600e+01
163 1 1 9.924135e+01 3.333492e+01 7.998024e+01
164 1 1 1.007773e+02 3.333678e+01 8.001241e+01
165 1 1 1.023289e+02 3.331644e+01 7.999649e+01
166 1 1 1.038864e+02 3.332090e+01 7.997990e+01
167 1 1 1.054076e+02 3.333977e+01 8.000784e+01
168 1 1 1.069304e+02 3.331562e+01 8.001030e+01
169 1 1 1.084763e+02 3.333904e+01 8.001772e+01
170 1 1 1.100249e+02 3.333438e+01 8.001799e+01
171 1 1 1.115780e+02 3.334338e+01 8.000777e+01
172 1 1 1.131218e+02 3.331924e+01 8.000735e+01
173 1 1 1.146386e+02 3.334484e+01 7.999617e+01
174 1 1 1.161947e+02 3.335121e+01 7.999294e+01
175 1 1 1.177475e+02 3.333488e+01 7.999821e+01
176 1 1 1.192716e+02 3.333982e+01 8.001245e+01
177 1 1 1.208199e+02 3.334185e+01 7.998019e+01
178 1 1 1.223695e+02 3.335353e+01 8.001947e+01
179 1 1 1.238885e+02 3.333822e+01 8.001958e+01
180 1 1 1.254119e+02 3.332480e+01 7.999269e+01
181 1 1 1.269893e+02 3.333937e+01 8.001750e+01
182 1 1 1.284952e+02 3.335065e+01 8.001041e+01
183 1 1 1.300591e+02 3.333530e+01 7.998175e+01
184 1 1 1.315810e+02 3.331451e+01 7.999763e+01
185 1 1 1.331503e+02 3.334436e+01 7.998000e+01
186 1 1 1.346824e+02 3.331539e+01 8.000667e+01
187 1 1 1.362138e+02 3.334864e+01 7.998964e+01
188 1 1 1.377329e+02 3.334830e+01 8.000960e+01
189 1 1 1.392791e+02 3.334418e+01 8.001723e+01
190 1 1 1.408407e+02 3.333334e+01 7.999313e+01
191 1 1 1.423540e+02 3.333883e+01 7.998878e+01
192 1 1 1.438979e+02 3.332985e+01 8.001181e+01
193 1 1 1.454624e+02 3.334322e+01 7.999016e+01
194 1 1 1.470014e+02 3.335324e+01 7.998035e+01
195 1 1 1.485453e+02 3.333881e+01 8.000388e+01
196 1 1 1.500658e+02 3.333176e+01 7.999895e+01
197 1 1 1.516307e+02 3.332132e+01 8.001939e+01
198 1 1 1.531476e+02 3.333232e+01 7.998866e+01
199 1 1 1.546945e+02 3.334834e+01 8.001195e+01
200 1 1 1.562402e+02 3.333319e+01 7.999046e+01
201 2 1 3.760486e+00 4.667031e+01 7.997949e+01
202 2 1 5.327207e+00 4.666264e+01 8.000040e+01
203 2 1 6.842553e+00 4.668151e+01 8.001042e+01
204 2 1 8.373342e+00 4.667695e+01 8.000661e+01
205 2 1 9.941707e+00 4.668444e+01 8.000616e+01
206 2 1 1.147511e+01 4.664711e+01 8.000475e+01
207 2 1 1.300332e+01 4.667147e+01 7.999294e+01
208 2 1 1.455384e+01 4.665499e+01 7.998582e+01
209 2 1 1.608025e+01 4.665520e+01 7.998170e+01
210 2 1 1.761212e+01 4.668269e+01 7.998459e+01
211 2 1 1.915736e+01 4.666019e+01 8.000496e+01
212 2 1 2.069338e+01 4.666285e+01 7.998393e+01
213 2 1 2.224468e+01 4.667108e+01 7.997989e+01
214 2 1 2.378843e+01 4.665955e+01 7.999159e+01
215 2 1 2.531557e+01 4.667748e+01 8.001347e+01
216 2 1 2.685819e+01 4.667781e+01 7.998489e+01
217 2 1 2.841396e+01 4.667739e+01 8.001166e+01
218 2 1 2.994127e+01 4.666288e+01 7.998358e+01
219 2 1 3.149080e+01 4.667369e+01 7.998900e+01
220 2 1 3.301790e+01 4.665706e+01 7.999881e+01
221 2 1 3.457626e+01 4.666403e+01 8.000255e+01
222 2 1 3.609850e+01 4.668423e+01 7.999295e+01
223 2 1 3.763546e+01 4.668116e+01 7.997989e+01
224 2 1 3.917402e+01 4.668388e+01 7.998691e+01
225 2 1 4.071012e+01 4.665223e+01 7.999631e+01
226 2 1 4.225287e+01 4.666695e+01 7.999956e+01
227 2 1 4.380013e+01 4.666065e+01 7.998659e+01
228 2 1 4.533708e+01 4.666662e+01 7.999216e+01
229 2 1 4.690697e+01 4.665232e+01 7.999849e+01
230 2 1 4.843587e+01 4.667419e+01 8.000058e+01
231 2 1 4.998920e+01 4.668499e+01 8.000510e+01
232 2 1 5.149067e+01 4.667155e+01 8.000899e+01
233 2 1 5.304500e+01 4.664742e+01 7.998308e+01
234 2 1 5.459946e+01 4.666789e+01 8.001886e+01
235 2 1 5.611180e+01 4.668258e+01 7.999692e+01
236 2 1 5.765854e+01 4.667273e+01 7.998312e+01
237 2 1 5.919042e+01 4.667425e+01 7.999376e+01
238 2 1 6.076551e+01 4.665049e+01 8.001442e+01
239 2 1 6.228314e+01 4.666611e+01 7.998343e+01
240 2 1 6.382173e+01 4.665879e+01 8.001553e+01
241 2 1 6.538379e+01 4.666784e+01 8.000452e+01
242 2 1 6.691875e+01 4.667691e+01 8.001408e+01
243 2 1 6.845918e+01 4.666455e+01 8.001768e+01
244 2 1 6.998019e+01 4.665895e+01 8.001018e+01
245 2 1 7.151394e+01 4.665232e+01 7.998294e+01
246 2 1 7.308694e+01 4.666525e+01 7.998335e+01
247 2 1 7.461748e+01 4.667186e+01 7.999986e+01
248 2 1 7.615195e+01 4.666232e+01 8.000546e+01
249 2 1 7.768938e+01 4.667978e+01 7.998518e+01
250 2 1 7.923234e+01 4.665559e+01 8.001395e+01
251 2 1 8.077621e+01 4.666062e+01 8.001213e+01
252 2 1 8.229365e+01 4.666700e+01 8.000581e+01
253 2 1 8.383702e+01 4.665318e+01 7.998563e+01
254 2 1 8.540787e+01 4.667289e+01 7.999565e+01
255 2 1 8.694167e+01 4.666250e+01 7.999223e+01
256 2 1 8.849004e+01 4.665848e+01 8.001213e+01
257 2 1 9.000535e+01 4.667665e+01 7.998204e+01
258 2 1 9.154039e+01 4.666472e+01 7.998309e+01
259 2 1 9.308821e+01 4.665384e+01 7.999118e+01
260 2 1 9.465004e+01 4.668660e+01 7.997948e+01
261 2 1 9.617598e+01 4.667181e+01 8.001770e+01
262 2 1 9.770313e+01 4.666782e+01 8.000226e+01
263 2 1 9.926495e+01 4.668164e+01 8.000424e+01
264 2 1 1.007992e+02 4.664685e+01 7.998109e+01
265 2 1 1.023136e+02 4.666314e+01 7.998499e+01
266 2 1 1.038635e+02 4.666751e+01 7.999425e+01
267 2 1 1.053914e+02 4.666670e+01 7.998843e+01
268 2 1 1.069585e+02 4.667651e+01 7.998315e+01
269 2 1 1.084914e+02 4.666320e+01 8.001216e+01
270 2 1 1.100396e+02 4.666804e+01 8.001952e+01
271 2 1 1.115907e+02 4.664559e+01 8.001189e+01
272 2 1 1.131040e+02 4.668260e+01 8.000569e+01
273 2 1 1.146684e+02 4.668301e+01 7.999187e+01
274 2 1 1.162094e+02 4.668682e+01 7.998262e+01
275 2 1 1.177352e+02 4.668306e+01 8.001363e+01
276 2 1 1.192540e+02 4.666789e+01 7.999638e+01
277 2 1 1.208054e+02 4.666042e+01 8.001387e+01
278 2 1 1.223540e+02 4.668193e+01 7.998558e+01
279 2 1 1.239029e+02 4.665680e+01 8.001566e+01
280 2 1 1.254367e+02 4.665693e+01 8.000145e+01
281 2 1 1.269686e+02 4.666870e+01 7.998227e+01
282 2 1 1.284940e+02 4.666329e+01 8.001135e+01
283 2 1 1.300479e+02 4.666829e+01 8.000824e+01
284 2 1 1.315879e+02 4.665126e+01 8.000427e+01
285 2 1 1.331406e+02 4.665193e+01 7.999013e+01
286 2 1 1.346539e+02 4.664672e+01 7.998346e+01
287 2 1 1.362021e+02 4.667795e+01 8.001015e+01
288 2 1 1.377352e+02 4.667788e+01 8.000739e+01
289 2 1 1.392732e+02 4.665048e+01 7.998871e+01
290 2 1 1.408186e+02 4.668545e+01 7.998450e+01
291 2 1 1.423817e+02 4.666658e+01 7.999141e+01
292 2 1 1.439265e+02 4.665281e+01 7.998672e+01
293 2 1 1.454581e+02 4.666972e+01 8.001849e+01
294 2 1 1.470104e+02 4.665821e+01 8.001569e+01
295 2 1 1.485428e+02 4.666208e+01 8.000220e+01
296 2 1 1.500864e+02 4.665833e+01 7.999680e+01
297 2 1 1.516026e+02 4.667234e+01 8.001195e+01
298 2 1 1.531457e+02 4.666224e+01 8.001691e+01
299 2 1 1.547043e+02 4.665567e+01 7.999724e+01
300 2 1 1.562258e+02 4.665953e+01 8.000552e+01
301 3 1 3.769745e+00 6.001585e+01 8.000491e+01
302 3 1 5.321027e+00 5.998097e+01 8.001901e+01
303 3 1 6.841855e+00 5.998526e+01 8.002013e+01
304 3 1 8.384588e+00 6.001756e+01 7.998163e+01
305 3 1 9.910164e+00 5.998491e+01 8.001338e+01
306 3 1 1.148655e+01 6.001343e+01 7.998848e+01
307 3 1 1.301476e+01 6.000342e+01 7.999724e+01
308 3 1 1.457072e+01 6.001515e+01 8.001941e+01
309 3 1 1.610064e+01 6.001553e+01 7.999840e+01
310 3 1 1.764290e+01 6.000633e+01 8.001633e+01
311 3 1 1.916337e+01 6.000140e+01 8.001784e+01
312 3 1 2.070740e+01 5.999895e+01 8.000749e+01
313 3 1 2.225479e+01 6.000258e+01 8.001492e+01
314 3 1 2.379479e+01 6.000367e+01 8.000023e+01
315 3 1 2.532491e+01 5.999763e+01 8.001184e+01
316 3 1 2.686798e+01 6.000722e+01 7.998859e+01
317 3 1 2.841376e+01 6.001358e+01 7.998233e+01
318 3 1 2.994562e+01 5.998561e+01 8.001219e+01
319 3 1 3.147805e+01 5.998180e+01 8.001137e+01
320 3 1 3.301436e+01 5.998470e+01 7.999428e+01
321 3 1 3.456326e+01 6.001493e+01 8.001923e+01
322 3 1 3.611871e+01 5.999925e+01 7.998482e+01
323 3 1 3.766925e+01 5.999730e+01 8.001799e+01
324 3 1 3.918676e+01 5.999370e+01 8.001468e+01
325 3 1 4.072997e+01 5.999667e+01 8.001797e+01
326 3 1 4.227297e+01 5.998334e+01 8.001875e+01
327 3 1 4.380991e+01 5.998733e+01 8.001204e+01
328 3 1 4.533731e+01 6.000058e+01 7.998540e+01
329 3 1 4.688036e+01 6.000293e+01 7.999376e+01
330 3 1 4.843788e+01 5.999001e+01 8.001437e+01
331 3 1 4.995623e+01 5.999079e+01 7.998129e+01
332 3 1 5.151367e+01 6.001282e+01 8.000220e+01
333 3 1 5.303405e+01 5.999592e+01 8.000157e+01
334 3 1 5.460693e+01 6.001453e+01 7.998924e+01
335 3 1 5.614548e+01 5.999519e+01 7.998074e+01
336 3 1 5.768542e+01 6.000305e+01 7.998125e+01
337 3 1 5.921638e+01 5.999315e+01 7.999966e+01
338 3 1 6.074563e+01 6.001498e+01 8.001440e+01
339 3 1 6.230513e+01 6.000885e+01 8.001431e+01
340 3 1 6.382419e+01 5.998447e+01 7.999318e+01
341 3 1 6.538734e+01 5.998898e+01 7.999365e+01
342 3 1 6.692039e+01 6.001697e+01 7.999458e+01
343 3 1 6.844827e+01 5.999268e+01 7.998450e+01
344 3 1 6.999131e+01 5.998743e+01 7.999026e+01
345 3 1 7.153196e+01 6.001058e+01 7.999635e+01
346 3 1 7.305391e+01 6.001376e+01 8.000253e+01
347 3 1 7.460227e+01 5.999828e+01 8.000060e+01
348 3 1 7.616467e+01 6.001183e+01 8.000060e+01
349 3 1 7.770718e+01 5.999081e+01 7.999161e+01
350 3 1 7.922000e+01 6.001035e+01 7.997942e+01
351 3 1 8.075597e+01 5.999451e+01 7.998694e+01
352 3 1 8.229295e+01 6.001926e+01 7.998779e+01
353 3 1 8.383211e+01 6.001994e+01 7.999170e+01
354 3 1 8.541028e+01 5.999928e+01 7.999971e+01
355 3 1 8.694757e+01 6.000522e+01 8.001350e+01
356 3 1 8.845748e+01 5.999649e+01 8.000916e+01
357 3 1 8.999075e+01 5.999667e+01 7.999692e+01
358 3 1 9.157018e+01 5.997905e+01 8.001422e+01
359 3 1 9.308563e+01 6.001929e+01 8.001866e+01
360 3 1 9.463935e+01 5.999503e+01 8.000510e+01
361 3 1 9.617375e+01 6.001844e+01 8.001250e+01
362 3 1 9.770684e+01 6.000476e+01 8.001993e+01
363 3 1 9.925060e+01 5.999982e+01 7.999800e+01
364 3 1 1.007985e+02 6.001149e+01 7.997926e+01
365 3 1 1.023448e+02 6.000803e+01 7.999911e+01
366 3 1 1.038530e+02 5.999528e+01 8.000887e+01
367 3 1 1.054069e+02 5.998499e+01 7.999907e+01
368 3 1 1.069401e+02 5.999591e+01 8.000514e+01
369 3 1 1.085043e+02 5.998399e+01 8.001753e+01
370 3 1 1.100410e+02 6.000899e+01 7.999811e+01
371 3 1 1.115854e+02 6.000979e+01 8.000461e+01
372 3 1 1.131119e+02 6.000716e+01 7.999274e+01
373 3 1 1.146671e+02 5.999549e+01 7.999860e+01
374 3 1 1.161749e+02 5.999714e+01 7.998631e+01
375 3 1 1.177137e+02 6.000089e+01 7.998732e+01
376 3 1 1.192586e+02 6.001837e+01 8.000368e+01
377 3 1 1.207923e+02 6.000219e+01 8.001778e+01
378 3 1 1.223598e+02 6.001430e+01 8.001096e+01
379 3 1 1.239009e+02 5.999358e+01 8.001778e+01
380 3 1 1.254344e+02 5.999423e+01 8.001259e+01
381 3 1 1.269724e+02 5.998779e+01 8.000391e+01
382 3 1 1.285271e+02 6.000433e+01 7.999178e+01
383 3 1 1.300299e+02 6.000770e+01 8.001070e+01
384 3 1 1.315938e+02 6.001250e+01 8.000818e+01
385 3 1 1.331099e+02 5.999068e+01 7.999466e+01
386 3 1 1.346904e+02 6.000277e+01 7.998810e+01
387 3 1 1.362020e+02 5.998902e+01 8.000877e+01
388 3 1 1.377512e+02 6.000331e+01 7.999657e+01
389 3 1 1.393095e+02 6.001505e+01 8.000545e+01
390 3 1 1.408327e+02 5.999342e+01 8.001013e+01
391 3 1 1.423876e+02 5.998189e+01 8.001659e+01
392 3 1 1.438994e+02 6.000381e+01 7.998390e+01
393 3 1 1.454426e+02 5.999272e+01 8.001186e+01
394 3 1 1.469968e+02 5.999280e+01 8.001648e+01
395 3 1 1.485403e+02 5.997920e+01 8.000887e+01
396 3 1 1.500755e+02 6.000477e+01 8.001331e+01
397 3 1 1.516239e+02 5.999316e+01 7.998132e+01
398 3 1 1.531529e+02 6.001326e+01 8.001477e+01
399 3 1 1.546910e+02 6.002010e+01 7.998080e+01
400 3 1 1.562217e+02 6.001764e+01 7.998538e+01
401 4 1 3.752596e+00 7.333495e+01 7.998343e+01
402 4 1 5.305792e+00 7.334602e+01 7.999323e+01
403 4 1 6.855561e+00 7.333764e+01 7.998280e+01
404 4 1 8.389918e+00 7.334057e+01 7.998233e+01
405 4 1 9.949779e+00 7.332258e+01 7.997952e+01
406 4 1 1.146950e+01 7.332694e+01 7.999373e+01
407 4 1 1.300359e+01 7.334188e+01 8.000336e+01
408 4 1 1.455467e+01 7.331419e+01 8.001247e+01
409 4 1 1.609292e+01 7.333361e+01 8.001596e+01
410 4 1 1.762956e+01 7.332780e+01 7.999663e+01
411 4 1 1.918958e+01 7.333906e+01 8.000677e+01
412 4 1 2.072341e+01 7.333619e+01 7.999893e+01
413 4 1 2.223802e+01 7.331397e+01 8.001559e+01
414 4 1 2.380916e+01 7.334182e+01 7.999382e+01
415 4 1 2.531430e+01 7.331773e+01 8.001791e+01
416 4 1 2.685054e+01 7.334335e+01 7.999380e+01
417 4 1 2.840841e+01 7.333096e+01 8.001912e+01
418 4 1 2.993916e+01 7.332619e+01 8.000986e+01
419 4 1 3.148393e+01 7.335270e+01 7.998067e+01
420 4 1 3.301699e+01 7.335120e+01 8.001129e+01
421 4 1 3.455555e+01 7.333907e+01 7.999751e+01
422 4 1 3.610752e+01 7.333666e+01 7.998399e+01
423 4 1 3.766187e+01 7.331528e+01 8.001802e+01
424 4 1 3.917669e+01 7.334077e+01 7.999527e+01
425 4 1 4.074432e+01 7.333120e+01 7.999478e+01
426 4 1 4.228362e+01 7.333294e+01 8.001208e+01
427 4 1 4.381220e+01 7.331574e+01 8.000188e+01
428 4 1 4.534431e+01 7.333845e+01 7.999590e+01
429 4 1 4.687587e+01 7.332307e+01 8.001773e+01
430 4 1 4.840962e+01 7.331271e+01 8.000357e+01
431 4 1 4.998120e+01 7.333930e+01 8.000974e+01
432 4 1 5.151947e+01 7.331475e+01 8.000935e+01
433 4 1 5.305165e+01 7.335101e+01 7.998560e+01
434 4 1 5.460537e+01 7.334391e+01 7.997954e+01
435 4 1 5.613598e+01 7.333270e+01 8.000537e+01
436 4 1 5.767707e+01 7.331547e+01 7.998988e+01
437 4 1 5.919872e+01 7.332261e+01 7.998657e+01
438 4 1 6.075607e+01 7.332606e+01 7.999770e+01
439 4 1 6.227456e+01 7.334048e+01 7.999855e+01
440 4 1 6.383493e+01 7.331469e+01 7.997928e+01
441 4 1 6.535314e+01 7.331661e+01 7.998576e+01
442 4 1 6.691260e+01 7.335279e+01 7.998032e+01
443 4 1 6.846722e+01 7.332774e+01 7.998413e+01
444 4 1 6.998766e+01 7.333527e+01 8.001877e+01
445 4 1 7.152127e+01 7.331757e+01 7.999940e+01
446 4 1 7.305386e+01 7.333858e+01 7.998640e+01
447 4 1 7.462157e+01 7.332983e+01 8.001694e+01
448 4 1 7.614317e+01 7.335192e+01 7.998193e+01
449 4 1 7.768291e+01 7.332497e+01 8.000923e+01
450 4 1 7.922535e+01 7.331942e+01 8.000267e+01
451 4 1 8.078012e+01 7.333778e+01 7.997958e+01
452 4 1 8.231043e+01 7.334003e+01 8.001804e+01
453 4 1 8.386489e+01 7.332764e+01 8.001723e+01
454 4 1 8.540274e+01 7.331432e+01 7.998161e+01
455 4 1 8.694014e+01 7.332940e+01 7.998280e+01
456 4 1 8.846368e+01 7.332636e+01 7.998695e+01
457 4 1 9.001984e+01 7.331472e+01 8.001437e+01
458 4 1 9.154432e+01 7.332223e+01 8.000050e+01
459 4 1 9.308334e+01 7.331773e+01 7.998395e+01
460 4 1 9.461810e+01 7.334222e+01 8.000317e+01
461 4 1 9.618237e+01 7.331606e+01 7.999094e+01
462 4 1 9.769684e+01 7.334148e+01 7.998526e+01
463 4 1 9.924783e+01 7.333250e+01 8.001402e+01
464 4 1 1.008012e+02 7.333358e+01 7.998946e+01
465 4 1 1.023449e+02 7.332661e+01 8.001625e+01
466 4 1 1.038751e+02 7.332911e+01 8.001614e+01
467 4 1 1.054017e+02 7.333198e+01 8.000645e+01
468 4 1 1.069449e+02 7.331484e+01 7.999478e+01
469 4 1 1.084930e+02 7.334670e+01 8.000287e+01
470 4 1 1.100406e+02 7.334570e+01 8.000792e+01
471 4 1 1.115536e+02 7.331712e+01 7.999844e+01
472 4 1 1.131101e+02 7.331631e+01 7.998979e+01
473 4 1 1.146379e+02 7.332719e+01 8.001137e+01
474 4 1 1.161879e+02 7.334020e+01 7.999074e+01
475 4 1 1.177138e+02 7.332900e+01 8.001126e+01
476 4 1 1.192776e+02 7.331376e+01 8.001846e+01
477 4 1 1.208027e+02 7.333471e+01 7.998917e+01
478 4 1 1.223456e+02 7.332191e+01 7.997934e+01
479 4 1 1.238792e+02 7.334095e+01 7.999852e+01
480 4 1 1.254225e+02 7.335177e+01 8.000764e+01
481 4 1 1.269852e+02 7.331896e+01 7.999386e+01
482 4 1 1.284972e+02 7.334820e+01 7.997980e+01
483 4 1 1.300547e+02 7.334037e+01 7.998116e+01
484 4 1 1.315815e+02 7.334934e+01 8.001180e+01
485 4 1 1.331453e+02 7.331738e+01 8.000034e+01
486 4 1 1.346670e+02 7.331902e+01 7.998265e+01
487 4 1 1.361912e+02 7.334362e+01 7.997975e+01
488 4 1 1.377365e+02 7.332313e+01 8.000403e+01
489 4 1 1.392703e+02 7.334254e+01 8.000916e+01
490 4 1 1.408289e+02 7.334144e+01 7.999301e+01
491 4 1 1.423725e+02 7.333662e+01 7.999580e+01
492 4 1 1.438963e+02 7.334466e+01 7.998517e+01
493 4 1 1.454390e+02 7.333701e+01 7.999261e+01
494 4 1 1.469860e+02 7.335064e+01 7.997964e+01
495 4 1 1.485415e+02 7.332285e+01 8.000356e+01
496 4 1 1.500721e+02 7.333382e+01 7.998955e+01
497 4 1 1.516282e+02 7.331358e+01 7.999615e+01
498 4 1 1.531464e+02 7.332644e+01 8.000143e+01
499 4 1 1.546749e+02 7.335043e+01 8.000545e+01
500 4 1 1.562457e+02 7.334467e+01 7.998483e+01
501 5 1 3.772061e+00 8.665588e+01 7.999515e+01
502 5 1 5.293501e+00 8.665885e+01 8.001009e+01
503 5 1 6.842649e+00 8.667872e+01 8.001591e+01
504 5 1 8.389838e+00 8.667683e+01 7.998679e+01
505 5 1 9.948467e+00 8.665087e+01 7.999614e+01
506 5 1 1.145621e+01 8.667759e+01 7.998055e+01
507 5 1 1.299040e+01 8.667702e+01 8.000520e+01
508 5 1 1.455148e+01 8.665101e+01 8.000212e+01
509 5 1 1.610358e+01 8.668400e+01 8.000249e+01
510 5 1 1.762804e+01 8.667303e+01 7.998880e+01
511 5 1 1.918413e+01 8.665003e+01 7.998120e+01
512 5 1 2.069859e+01 8.667985e+01 7.999765e+01
513 5 1 2.225953e+01 8.664860e+01 7.999022e+01
514 5 1 2.380869e+01 8.665824e+01 7.998488e+01
515 5 1 2.532328e+01 8.668557e+01 7.997943e+01
516 5 1 2.685057e+01 8.666584e+01 7.998320e+01
517 5 1 2.839418e+01 8.665228e+01 8.000522e+01
518 5 1 2.996251e+01 8.666776e+01 8.001837e+01
519 5 1 3.148042e+01 8.666824e+01 7.999675e+01
520 5 1 3.302366e+01 8.665447e+01 8.001256e+01
521 5 1 3.458006e+01 8.668003e+01 8.000092e+01
522 5 1 3.611628e+01 8.665606e+01 8.001305e+01
523 5 1 3.765592e+01 8.664684e+01 8.000441e+01
524 5 1 3.919551e+01 8.666314e+01 7.997990e+01
525 5 1 4.073586e+01 8.668214e+01 7.999194e+01
526 5 1 4.226661e+01 8.667123e+01 7.998683e+01
527 5 1 4.379538e+01 8.666581e+01 7.999135e+01
528 5 1 4.535236e+01 8.664817e+01 8.000168e+01
529 5 1 4.688357e+01 8.664692e+01 8.000505e+01
530 5 1 4.841255e+01 8.665281e+01 7.998538e+01
531 5 1 4.995587e+01 8.665156e+01 7.998857e+01
532 5 1 5.152382e+01 8.664841e+01 7.999590e+01
533 5 1 5.303705e+01 8.667707e+01 8.000168e+01
534 5 1 5.458360e+01 8.665865e+01 7.998135e+01
535 5 1 5.612741e+01 8.666984e+01 7.998819e+01
536 5 1 5.765615e+01 8.667654e+01 8.001785e+01
537 5 1 5.921294e+01 8.666740e+01 8.001823e+01
538 5 1 6.075092e+01 8.664999e+01 7.998828e+01
539 5 1 6.229010e+01 8.665054e+01 8.000577e+01
540 5 1 6.382854e+01 8.667986e+01 7.999857e+01
541 5 1 6.536968e+01 8.666009e+01 8.001900e+01
542 5 1 6.690068e+01 8.668027e+01 8.001743e+01
543 5 1 6.843333e+01 8.667915e+01 8.000558e+01
544 5 1 7.000626e+01 8.665658e+01 7.998389e+01
545 5 1 7.153226e+01 8.668330e+01 8.000682e+01
546 5 1 7.305447e+01 8.667872e+01 7.999516e+01
547 5 1 7.459548e+01 8.667536e+01 7.998198e+01
548 5 1 7.615739e+01 8.665311e+01 7.998145e+01
549 5 1 7.767898e+01 8.667350e+01 7.998805e+01
550 5 1 7.921540e+01 8.665861e+01 8.000543e+01
551 5 1 8.075483e+01 8.667303e+01 8.000711e+01
552 5 1 8.229985e+01 8.665784e+01 8.001981e+01
553 5 1 8.384792e+01 8.667390e+01 8.000575e+01
554 5 1 8.540038e+01 8.664643e+01 7.999571e+01
555 5 1 8.691546e+01 8.667744e+01 7.999208e+01
556 5 1 8.846082e+01 8.667182e+01 8.000504e+01
557 5 1 9.001791e+01 8.667980e+01 7.999762e+01
558 5 1 9.153408e+01 8.667422e+01 8.001059e+01
559 5 1 9.307688e+01 8.666338e+01 7.999622e+01
560 5 1 9.464685e+01 8.667785e+01 7.999046e+01
561 5 1 9.618242e+01 8.668246e+01 8.001512e+01
562 5 1 9.770877e+01 8.666276e+01 8.001337e+01
563 5 1 9.924829e+01 8.664605e+01 7.999667e+01
564 5 1 1.008091e+02 8.667071e+01 7.999164e+01
565 5 1 1.023256e+02 8.665733e+01 8.000859e+01
566 5 1 1.038870e+02 8.664936e+01 8.001553e+01
567 5 1 1.054102e+02 8.667852e+01 7.999956e+01
568 5 1 1.069463e+02 8.667515e+01 7.998949e+01
569 5 1 1.084712e+02 8.665156e+01 8.001109e+01
570 5 1 1.100165e+02 8.667785e+01 7.998158e+01
571 5 1 1.115501e+02 8.665597e+01 8.001253e+01
572 5 1 1.131044e+02 8.667847e+01 7.999149e+01
573 5 1 1.146493e+02 8.667928e+01 8.001573e+01
574 5 1 1.162042e+02 8.666149e+01 7.998633e+01
575 5 1 1.177309e+02 8.665063e+01 8.001984e+01
576 5 1 1.192877e+02 8.668351e+01 7.999554e+01
577 5 1 1.208139e+02 8.666836e+01 8.000870e+01
578 5 1 1.223586e+02 8.667452e+01 7.999303e+01
579 5 1 1.238850e+02 8.667750e+01 7.998708e+01
580 5 1 1.254507e+02 8.667654e+01 7.999910e+01
581 5 1 1.269642e+02 8.665003e+01 8.001363e+01
582 5 1 1.285295e+02 8.667544e+01 8.000221e+01
583 5 1 1.300328e+02 8.664643e+01 8.001207e+01
584 5 1 1.315845e+02 8.668604e+01 8.001781e+01
585 5 1 1.331470e+02 8.665548e+01 7.998688e+01
586 5 1 1.346551e+02 8.665090e+01 8.000150e+01
587 5 1 1.362186e+02 8.667190e+01 7.999821e+01
588 5 1 1.377527e+02 8.667980e+01 8.001825e+01
589 5 1 1.392984e+02 8.667562e+01 8.000729e+01
590 5 1 1.408450e+02 8.665554e+01 7.998163e+01
591 5 1 1.423569e+02 8.666467e+01 7.999849e+01
592 5 1 1.439289e+02 8.667304e+01 7.998973e+01
593 5 1 1.454621e+02 8.665263e+01 8.000356e+01
594 5 1 1.470047e+02 8.665206e+01 8.001715e+01
595 5 1 1.485279e+02 8.668468e+01 8.001924e+01
596 5 1 1.500877e+02 8.666749e+01 8.000294e+01
597 5 1 1.515989e+02 8.667544e+01 8.000307e+01
598 5 1 1.531590e+02 8.666723e+01 7.998672e+01
599 5 1 1.546724e+02 8.667529e+01 8.000705e+01
600 5 1 1.562318e+02 8.667524e+01 8.001237e+01
601 6 1 3.763043e+00 1.000095e+02 7.998114e+01
602 6 1 5.293898e+00 1.000167e+02 7.999202e+01
603 6 1 6.854804e+00 9.997946e+01 7.998044e+01
604 6 1 8.409785e+00 1.000005e+02 8.000154e+01
605 6 1 9.939836e+00 9.998622e+01 7.998587e+01
606 6 1 1.146930e+01 1.000019e+02 8.001004e+01
607 6 1 1.302991e+01 1.000080e+02 7.998920e+01
608 6 1 1.453771e+01 9.999951e+01 8.001883e+01
609 6 1 1.610691e+01 9.998932e+01 7.999614e+01
610 6 1 1.761399e+01 1.000134e+02 7.998079e+01
611 6 1 1.917652e+01 1.000155e+02 7.998274e+01
612 6 1 2.070801e+01 9.999178e+01 8.001863e+01
613 6 1 2.225321e+01 9.998402e+01 7.999426e+01
614 6 1 2.378951e+01 1.000011e+02 8.001707e+01
615 6 1 2.534392e+01 1.000076e+02 7.999072e+01
616 6 1 2.688112e+01 1.000144e+02 7.999284e+01
617 6 1 2.839318e+01 1.000180e+02 8.001897e+01
618 6 1 2.995146e+01 9.999358e+01 7.998021e+01
619 6 1 3.147434e+01 9.999881e+01 8.001135e+01
620 6 1 3.300956e+01 9.999629e+01 8.000035e+01
621 6 1 3.456684e+01 1.000061e+02 8.000313e+01
622 6 1 3.609582e+01 1.000052e+02 8.000069e+01
623 6 1 3.765304e+01 9.998409e+01 8.001869e+01
624 6 1 3.917270e+01 1.000108e+02 7.998566e+01
625 6 1 4.074258e+01 1.000093e+02 8.001059e+01
626 6 1 4.226671e+01 9.999580e+01 8.001530e+01
627 6 1 4.381603e+01 9.998282e+01 8.001717e+01
628 6 1 4.534600e+01 9.999899e+01 8.001048e+01
629 6 1 4.689655e+01 1.000104e+02 7.998619e+01
630 6 1 4.841948e+01 1.000105e+02 7.997981e+01
631 6 1 4.996973e+01 1.000067e+02 8.001654e+01
632 6 1 5.149972e+01 1.000103e+02 7.999028e+01
633 6 1 5.306356e+01 1.000005e+02 7.998972e+01
634 6 1 5.457517e+01 9.999466e+01 8.000839e+01
635 6 1 5.613109e+01 9.999429e+01 8.000056e+01