ITEM: TIMESTEP
1
ITEM: NUMBER OF ATOMS
1000
ITEM: BOX BOUNDS pp pp pp
     -8.000000E+01       8.000000E+01
     -8.000000E+01       8.000000E+01
     -8.000000E+01       8.000000E+01
ITEM: ATOMS id mol type xu yu zu
1 0 1 3.758415e+00 1.999789e+01 8.001137e+01
2 0 1 5.311234e+00 2.000897e+01 8.001147e+01
3 0 1 6.835245e+00 2.001188e+01 8.001007e+01
4 0 1 8.370893e+00 1.998518e+01 7.999791e+01
5 0 1 9.929090e+00 1.998157e+01 7.998242e+01
6 0 1 1.147939e+01 2.000339e+01 7.999019e+01
7 0 1 1.298997e+01 1.999080e+01 7.999686e+01
8 0 1 1.457086e+01 2.001469e+01 8.000473e+01
9 0 1 1.609877e+01 1.999550e+01 8.000328e+01
10 0 1 1.763912e+01 2.001410e+01 7.999310e+01
11 0 1 1.917287e+01 1.998102e+01 8.001608e+01
12 0 1 2.072515e+01 1.998165e+01 8.000652e+01
13 0 1 2.226702e+01 1.999747e+01 7.998645e+01
14 0 1 2.379690e+01 2.000926e+01 7.998827e+01
15 0 1 2.532994e+01 1.998596e+01 8.001862e+01
16 0 1 2.688527e+01 1.998024e+01 8.001427e+01
17 0 1 2.839449e+01 1.999508e+01 7.999660e+01
18 0 1 2.996843e+01 2.001258e+01 7.999244e+01
19 0 1 3.147330e+01 2.000274e+01 7.998216e+01
20 0 1 3.304578e+01 1.999639e+01 7.998825e+01
21 0 1 3.457772e+01 1.998121e+01 8.000037e+01
22 0 1 3.612284e+01 1.999134e+01 7.998044e+01
23 0 1 3.764723e+01 2.001804e+01 8.000002e+01
24 0 1 3.920031e+01 1.998827e+01 7.999803e+01
25 0 1 4.074799e+01 2.000886e+01 8.001534e+01
26 0 1 4.225097e+01 2.000570e+01 8.001959e+01
27 0 1 4.382169e+01 1.999451e+01 7.999670e+01
28 0 1 4.536551e+01 2.000126e+01 7.998720e+01
29 0 1 4.688854e+01 2.000562e+01 7.998837e+01
30 0 1 4.841353e+01 1.998838e+01 7.998752e+01
31 0 1 4.996501e+01 2.001857e+01 7.999716e+01
32 0 1 5.149376e+01 1.999640e+01 7.998595e+01
33 0 1 5.305943e+01 1.998540e+01 8.001718e+01
34 0 1 5.459687e+01 2.001049e+01 7.998927e+01
35 0 1 5.613172e+01 1.999132e+01 8.000499e+01
36 0 1 5.768080e+01 2.001202e+01 8.001909e+01
37 0 1 5.921191e+01 1.998613e+01 7.999791e+01
38 0 1 6.074623e+01 2.001643e+01 7.998106e+01
39 0 1 6.229619e+01 1.998281e+01 8.001511e+01
40 0 1 6.384919e+01 2.000284e+01 7.998051e+01
41 0 1 6.535517e+01 1.998469e+01 8.001894e+01
42 0 1 6.691622e+01 2.001066e+01 7.999524e+01
43 0 1 6.845354e+01 1.998415e+01 7.998351e+01
44 0 1 6.998379e+01 1.999055e+01 7.999623e+01
45 0 1 7.152365e+01 1.998444e+01 8.001161e+01
46 0 1 7.306523e+01 2.000449e+01 7.999477e+01
47 0 1 7.462503e+01 2.001145e+01 8.001428e+01
48 0 1 7.616992e+01 1.998623e+01 7.998051e+01
49 0 1 7.767864e+01 2.000027e+01 7.999541e+01
50 0 1 7.922626e+01 1.999495e+01 8.000471e+01
51 0 1 8.076505e+01 1.998156e+01 8.002042e+01
52 0 1 8.232002e+01 1.999313e+01 7.997900e+01
53 0 1 8.386649e+01 2.001031e+01 7.999089e+01
54 0 1 8.539082e+01 2.000559e+01 7.999806e+01
55 0 1 8.692930e+01 1.999759e+01 8.001283e+01
56 0 1 8.844949e+01 1.998680e+01 8.001007e+01
57 0 1 9.000397e+01 1.999437e+01 8.000085e+01
58 0 1 9.157027e+01 1.998270e+01 7.998923e+01
59 0 1 9.309842e+01 2.001034e+01 8.000499e+01
60 0 1 9.462097e+01 1.998005e+01 7.998480e+01
61 0 1 9.618102e+01 2.001509e+01 8.001328e+01
62 0 1 9.769300e+01 1.998195e+01 7.998098e+01
63 0 1 9.925554e+01 1.999242e+01 7.998071e+01
64 0 1 1.007934e+02 1.999019e+01 7.999402e+01
65 0 1 1.023398e+02 2.000536e+01 7.999171e+01
66 0 1 1.038706e+02 1.998724e+01 8.001665e+01
67 0 1 1.053947e+02 2.000177e+01 7.999541e+01
68 0 1 1.069595e+02 2.001378e+01 7.999266e+01
69 0 1 1.084840e+02 2.001160e+01 7.998747e+01
70 0 1 1.100233e+02 2.000182e+01 7.997931e+01
71 0 1 1.115550e+02 1.999907e+01 7.999754e+01
72 0 1 1.131023e+02 2.001587e+01 7.998061e+01
73 0 1 1.146467e+02 1.997984e+01 8.000459e+01
74 0 1 1.161749e+02 1.997943e+01 7.998264e+01
75 0 1 1.177429e+02 1.998831e+01 7.999197e+01
76 0 1 1.192654e+02 2.001502e+01 8.000133e+01
77 0 1 1.208234e+02 1.999196e+01 7.998117e+01
78 0 1 1.223587e+02 2.001352e+01 8.000932e+01
79 0 1 1.239099e+02 1.998280e+01 7.999197e+01
80 0 1 1.254144e+02 1.998156e+01 8.001279e+01
81 0 1 1.269539e+02 2.000124e+01 8.001378e+01
82 0 1 1.285115e+02 1.998471e+01 8.001973e+01
83 0 1 1.300617e+02 2.000650e+01 8.001288e+01
84 0 1 1.316102e+02 2.001415e+01 8.001709e+01
85 0 1 1.331216e+02 2.001846e+01 7.998096e+01
86 0 1 1.346604e+02 2.001525e+01 8.000652e+01
87 0 1 1.362307e+02 1.999650e+01 7.998480e+01
88 0 1 1.377636e+02 1.998679e+01 8.000528e+01
89 0 1 1.392986e+02 1.998275e+01 7.998293e+01
90 0 1 1.408244e+02 1.999025e+01 7.999794e+01
91 0 1 1.423588e+02 1.998322e+01 7.999586e+01
92 0 1 1.439079e+02 2.000202e+01 8.002025e+01
93 0 1 1.454354e+02 1.999342e+01 7.998602e+01
94 0 1 1.469785e+02 1.998500e+01 8.001720e+01
95 0 1 1.485241e+02 1.999978e+01 8.000247e+01
96 0 1 1.500620e+02 1.998972e+01 7.999025e+01
97 0 1 1.516077e+02 2.000690e+01 8.000594e+01
98 0 1 1.531442e+02 2.000611e+01 7.999509e+01
99 0 1 1.547106e+02 1.998092e+01 8.000403e+01
100 0 1 1.562267e+02 2.001266e+01 8.001459e+01
101 1 1 3.782169e+00 3.333146e+01 7.998801e+01
102 1 1 5.291763e+00 3.332628e+01 7.999878e+01
103 1 1 6.853346e+00 3.332124e+01 8.000606e+01
104 1 1 8.408463e+00 3.332370e+01 8.000916e+01
105 1 1 9.936034e+00 3.331715e+01 8.001663e+01
106 1 1 1.146826e+01 3.331468e+01 8.000093e+01
107 1 1 1.300354e+01 3.333838e+01 7.999411e+01
108 1 1 1.455163e+01 3.331319e+01 8.001195e+01
109 1 1 1.608841e+01 3.333000e+01 7.999530e+01
110 1 1 1.764019e+01 3.332069e+01 8.000488e+01
111 1 1 1.916265e+01 3.333825e+01 7.998164e+01
112 1 1 2.070206e+01 3.332316e+01 7.998973e+01
113 1 1 2.225421e+01 3.334307e+01 8.000122e+01
114 1 1 2.379716e+01 3.334453e+01 7.998798e+01
115 1 1 2.532720e+01 3.333297e+01 8.001979e+01
116 1 1 2.686046e+01 3.335177e+01 8.000348e+01
117 1 1 2.841715e+01 3.331578e+01 7.999429e+01
118 1 1 2.996656e+01 3.332228e+01 7.999498e+01
119 1 1 3.147369e+01 3.334882e+01 7.998299e+01
120 1 1 3.302649e+01 3.332932e+01 8.001987e+01
121 1 1 3.456823e+01 3.334022e+01 8.000743e+01
122 1 1 3.611881e+01 3.334820e+01 7.998279e+01
123 1 1 3.767038e+01 3.334674e+01 8.000000e+01
124 1 1 3.918588e+01 3.331245e+01 7.998433e+01
125 1 1 4.072133e+01 3.333410e+01 8.000748e+01
126 1 1 4.227901e+01 3.331622e+01 8.001974e+01
127 1 1 4.383116e+01 3.334388e+01 7.998567e+01
128 1 1 4.536453e+01 3.334040e+01 7.999214e+01
129 1 1 4.689626e+01 3.331612e+01 8.001263e+01
130 1 1 4.844354e+01 3.331255e+01 7.999321e+01
131 1 1 4.998700e+01 3.332471e+01 8.000223e+01
132 1 1 5.150736e+01 3.332691e+01 7.998804e+01
133 1 1 5.305614e+01 3.332481e+01 7.998007e+01
134 1 1 5.459093e+01 3.333624e+01 8.000206e+01
135 1 1 5.611531e+01 3.335288e+01 8.001912e+01
136 1 1 5.766682e+01 3.332763e+01 7.999120e+01
137 1 1 5.920407e+01 3.333812e+01 8.000656e+01
138 1 1 6.076219e+01 3.335048e+01 7.999585e+01
139 1 1 6.228026e+01 3.335075e+01 7.999020e+01
140 1 1 6.383045e+01 3.333380e+01 8.001552e+01
141 1 1 6.535407e+01 3.334820e+01 8.001392e+01
142 1 1 6.692664e+01 3.335413e+01 8.000352e+01
143 1 1 6.843369e+01 3.333794e+01 7.999509e+01
144 1 1 6.999757e+01 3.335360e+01 8.000156e+01
145 1 1 7.153234e+01 3.334366e+01 8.001566e+01
146 1 1 7.306484e+01 3.333735e+01 8.002077e+01
147 1 1 7.462848e+01 3.332791e+01 7.999342e+01
148 1 1 7.616271e+01 3.334666e+01 8.000331e+01
149 1 1 7.771033e+01 3.332277e+01 8.000522e+01
150 1 1 7.921975e+01 3.332646e+01 8.001132e+01
151 1 1 8.075970e+01 3.331940e+01 8.000273e+01
152 1 1 8.229732e+01 3.334593e+01 8.001935e+01
153 1 1 8.383192e+01 3.333729e+01 7.999361e+01
154 1 1 8.538405e+01 3.333714e+01 8.000232e+01
155 1 1 8.694110e+01 3.335122e+01 8.001993e+01
156 1 1 8.846432e+01 3.333699e+01 7.999158e+01
157 1 1 9.002341e+01 3.333107e+01 7.998967e+01
158 1 1 9.155114e+01 3.332044e+01 8.001088e+01
159 1 1 9.308112e+01 3.334437e+01 8.001810e+01
160 1 1 9.464301e+01 3.332467e+01 7.998853e+01
161 1 1 9.615158e+01 3.332973e+01 7.998546e+01
162 1 1 9.771978e+01 3.333086e+01 7.999715e+01
163 1 1 9.923712e+01 3.334761e+01 8.001555e+01
164 1 1 1.007880e+02 3.333877e+01 7.998268e+01
165 1 1 1.023113e+02 3.332890e+01 8.000526e+01
166 1 1 1.038804e+02 3.331977e+01 8.001297e+01
167 1 1 1.054041e+02 3.332591e+01 8.000874e+01
168 1 1 1.069357e+02 3.332861e+01 8.001768e+01
169 1 1 1.084878e+02 3.333342e+01 7.999307e+01
170 1 1 1.100162e+02 3.335250e+01 7.999396e+01
171 1 1 1.115782e+02 3.332057e+01 7.999869e+01
172 1 1 1.131097e+02 3.334821e+01 7.998045e+01
173 1 1 1.146488e+02 3.332471e+01 7.999117e+01
174 1 1 1.161735e+02 3.331763e+01 7.998381e+01
175 1 1 1.177451e+02 3.333123e+01 8.000702e+01
176 1 1 1.192717e+02 3.333885e+01 7.998810e+01
177 1 1 1.208182e+02 3.334098e+01 8.000537e+01
178 1 1 1.223602e+02 3.334803e+01 8.001335e+01
179 1 1 1.238828e+02 3.331961e+01 8.001910e+01
180 1 1 1.254295e+02 3.335055e+01 8.000478e+01
181 1 1 1.269897e+02 3.333128e+01 7.998415e+01
182 1 1 1.285246e+02 3.333674e+01 7.999396e+01
183 1 1 1.300690e+02 3.335419e+01 8.001860e+01
184 1 1 1.315925e+02 3.332375e+01 8.000168e+01
185 1 1 1.331447e+02 3.332859e+01 8.000870e+01
186 1 1 1.346545e+02 3.334175e+01 7.998047e+01
187 1 1 1.362170e+02 3.334071e+01 8.001808e+01
188 1 1 1.377578e+02 3.333536e+01 7.998755e+01
189 1 1 1.392695e+02 3.333759e+01 8.001557e+01
190 1 1 1.408434e+02 3.335227e+01 7.999756e+01
191 1 1 1.423625e+02 3.333963e+01 8.001350e+01
192 1 1 1.438907e+02 3.332132e+01 7.998956e+01
193 1 1 1.454472e+02 3.333898e+01 8.001125e+01
194 1 1 1.469973e+02 3.332624e+01 7.998322e+01
195 1 1 1.485475e+02 3.333947e+01 8.000230e+01
196 1 1 1.500600e+02 3.335367e+01 7.998671e+01
197 1 1 1.516070e+02 3.332940e+01 8.000830e+01
198 1 1 1.531560e+02 3.332709e+01 7.998093e+01
199 1 1 1.547004e+02 3.331944e+01 7.999104e+01
200 1 1 1.562128e+02 3.334069e+01 8.001415e+01
201 2 1 3.774230e+00 4.664664e+01 8.000900e+01
202 2 1 5.317606e+00 4.665181e+01 8.001126e+01
203 2 1 6.838110e+00 4.666213e+01 8.000198e+01
204 2 1 8.382306e+00 4.666423e+01 8.000325e+01
205 2 1 9.940174e+00 4.667854e+01 7.997931e+01
206 2 1 1.147976e+01 4.668034e+01 7.998494e+01
207 2 1 1.301774e+01 4.665686e+01 8.001848e+01
208 2 1 1.455179e+01 4.667136e+01 7.998332e+01
209 2 1 1.607187e+01 4.667318e+01 8.000349e+01
210 2 1 1.763508e+01 4.665413e+01 8.000473e+01
211 2 1 1.915286e+01 4.667236e+01 7.998145e+01
212 2 1 2.073088e+01 4.667135e+01 7.999211e+01
213 2 1 2.226830e+01 4.665426e+01 8.000676e+01
214 2 1 2.377190e+01 4.667580e+01 7.998206e+01
215 2 1 2.534759e+01 4.666858e+01 7.998180e+01
216 2 1 2.685428e+01 4.666849e+01 8.000662e+01
217 2 1 2.840360e+01 4.665295e+01 7.998445e+01
218 2 1 2.993701e+01 4.665050e+01 7.999429e+01
219 2 1 3.147354e+01 4.668115e+01 8.001555e+01
220 2 1 3.301187e+01 4.665705e+01 8.000537e+01
221 2 1 3.456243e+01 4.665117e+01 7.998903e+01
222 2 1 3.609202e+01 4.665184e+01 7.999597e+01
223 2 1 3.763633e+01 4.667965e+01 7.998752e+01
224 2 1 3.917461e+01 4.665902e+01 8.000142e+01
225 2 1 4.073448e+01 4.665620e+01 8.000134e+01
226 2 1 4.226102e+01 4.665268e+01 8.000471e+01
227 2 1 4.382323e+01 4.668333e+01 7.999736e+01
228 2 1 4.535653e+01 4.665187e+01 7.999513e+01
229 2 1 4.689074e+01 4.666860e+01 8.001344e+01
230 2 1 4.844837e+01 4.668257e+01 8.001704e+01
231 2 1 4.995684e+01 4.665947e+01 7.999396e+01
232 2 1 5.150766e+01 4.666150e+01 7.998216e+01
233 2 1 5.302956e+01 4.666861e+01 7.998265e+01
234 2 1 5.458856e+01 4.668345e+01 7.998347e+01
235 2 1 5.611087e+01 4.668008e+01 7.999599e+01
236 2 1 5.767137e+01 4.665091e+01 8.000157e+01
237 2 1 5.922415e+01 4.666236e+01 7.999722e+01
238 2 1 6.074267e+01 4.665745e+01 7.998717e+01
239 2 1 6.228347e+01 4.668655e+01 7.999283e+01
240 2 1 6.381524e+01 4.664768e+01 8.001320e+01
241 2 1 6.537802e+01 4.667608e+01 7.999040e+01
242 2 1 6.692252e+01 4.665424e+01 8.001370e+01
243 2 1 6.843140e+01 4.667984e+01 7.998824e+01
244 2 1 7.000299e+01 4.668548e+01 7.998436e+01
245 2 1 7.154190e+01 4.667098e+01 8.000993e+01
246 2 1 7.306652e+01 4.667178e+01 7.998776e+01
247 2 1 7.460962e+01 4.667213e+01 7.998563e+01
248 2 1 7.613113e+01 4.666758e+01 8.001634e+01
249 2 1 7.768639e+01 4.665934e+01 8.001581e+01
250 2 1 7.922890e+01 4.667046e+01 8.001515e+01
251 2 1 8.075736e+01 4.665249e+01 8.000996e+01
252 2 1 8.232962e+01 4.667466e+01 7.998389e+01
253 2 1 8.386324e+01 4.668229e+01 7.998351e+01
254 2 1 8.540949e+01 4.666171e+01 7.999361e+01
255 2 1 8.693928e+01 4.668006e+01 7.999173e+01
256 2 1 8.848111e+01 4.665482e+01 7.999268e+01
257 2 1 9.000335e+01 4.665120e+01 7.999644e+01
258 2 1 9.155927e+01 4.665353e+01 7.998798e+01
259 2 1 9.311023e+01 4.664792e+01 7.999246e+01
260 2 1 9.463377e+01 4.668384e+01 7.999197e+01
261 2 1 9.618124e+01 4.667933e+01 7.998834e+01
262 2 1 9.769275e+01 4.665566e+01 7.999274e+01
263 2 1 9.924548e+01 4.667441e+01 7.997894e+01
264 2 1 1.007860e+02 4.668546e+01 8.000700e+01
265 2 1 1.023277e+02 4.666480e+01 8.000040e+01
266 2 1 1.038674e+02 4.668622e+01 7.999846e+01
267 2 1 1.054136e+02 4.666739e+01 7.999248e+01
268 2 1 1.069668e+02 4.664730e+01 8.001021e+01
269 2 1 1.084913e+02 4.666871e+01 8.001405e+01
270 2 1 1.100247e+02 4.667129e+01 8.000696e+01
271 2 1 1.115616e+02 4.667715e+01 7.998155e+01
272 2 1 1.130947e+02 4.666357e+01 8.001421e+01
273 2 1 1.146415e+02 4.664958e+01 7.998112e+01
274 2 1 1.162034e+02 4.668450e+01 7.998357e+01
275 2 1 1.177471e+02 4.667978e+01 8.001897e+01
276 2 1 1.192747e+02 4.667176e+01 7.998650e+01
277 2 1 1.208188e+02 4.668725e+01 8.000670e+01
278 2 1 1.223541e+02 4.664972e+01 8.000478e+01
279 2 1 1.238946e+02 4.666123e+01 7.998393e+01
280 2 1 1.254279e+02 4.667818e+01 8.001781e+01
281 2 1 1.269510e+02 4.667292e+01 8.000475e+01
282 2 1 1.285033e+02 4.667180e+01 8.001659e+01
283 2 1 1.300649e+02 4.664592e+01 8.001083e+01
284 2 1 1.315818e+02 4.666310e+01 7.998830e+01
285 2 1 1.331191e+02 4.668583e+01 8.000116e+01
286 2 1 1.346582e+02 4.668257e+01 8.001811e+01
287 2 1 1.362258e+02 4.666706e+01 8.000685e+01
288 2 1 1.377477e+02 4.668017e+01 8.001736e+01
289 2 1 1.393100e+02 4.667485e+01 7.998001e+01
290 2 1 1.408502e+02 4.665367e+01 8.001193e+01
291 2 1 1.423637e+02 4.666885e+01 7.998305e+01
292 2 1 1.439104e+02 4.665796e+01 8.001845e+01
293 2 1 1.454578e+02 4.664906e+01 7.998943e+01
294 2 1 1.469749e+02 4.668658e+01 7.999071e+01
295 2 1 1.485168e+02 4.668745e+01 8.000056e+01
296 2 1 1.500624e+02 4.668066e+01 8.000403e+01
297 2 1 1.516181e+02 4.664662e+01 8.001128e+01
298 2 1 1.531320e+02 4.664967e+01 8.000426e+01
299 2 1 1.547026e+02 4.668774e+01 7.999788e+01
300 2 1 1.562233e+02 4.666913e+01 7.999797e+01
301 3 1 3.775695e+00 6.000019e+01 8.000130e+01
302 3 1 5.299845e+00 5.999078e+01 8.000513e+01
303 3 1 6.839280e+00 6.000676e+01 7.999107e+01
304 3 1 8.382442e+00 5.998952e+01 7.999338e+01
305 3 1 9.950886e+00 5.998142e+01 8.001537e+01
306 3 1 1.149015e+01 6.000851e+01 7.999997e+01
307 3 1 1.300071e+01 6.000085e+01 7.999760e+01
308 3 1 1.453416e+01 6.001700e+01 8.000917e+01
309 3 1 1.607039e+01 6.001465e+01 7.998228e+01
310 3 1 1.764381e+01 6.001613e+01 7.999005e+01
311 3 1 1.918664e+01 6.001659e+01 8.001643e+01
312 3 1 2.070596e+01 6.000827e+01 7.998312e+01
313 3 1 2.223783e+01 6.000071e+01 8.000961e+01
314 3 1 2.377386e+01 6.000370e+01 8.001106e+01
315 3 1 2.531416e+01 5.999534e+01 8.000531e+01
316 3 1 2.686603e+01 5.998176e+01 7.998003e+01
317 3 1 2.841870e+01 5.999221e+01 8.001245e+01
318 3 1 2.994786e+01 5.998325e+01 8.001897e+01
319 3 1 3.147837e+01 6.000072e+01 7.999074e+01
320 3 1 3.302045e+01 5.999668e+01 8.001907e+01
321 3 1 3.458153e+01 5.998923e+01 7.998164e+01
322 3 1 3.609372e+01 6.000570e+01 8.000691e+01
323 3 1 3.764966e+01 5.998222e+01 8.000743e+01
324 3 1 3.920847e+01 6.000677e+01 8.000980e+01
325 3 1 4.074860e+01 6.000809e+01 7.999870e+01
326 3 1 4.228388e+01 5.999269e+01 7.999777e+01
327 3 1 4.379704e+01 6.000613e+01 7.998188e+01
328 3 1 4.534144e+01 5.999739e+01 8.000529e+01
329 3 1 4.688258e+01 6.001806e+01 8.001306e+01
330 3 1 4.842088e+01 5.999323e+01 7.999960e+01
331 3 1 4.997451e+01 6.000380e+01 8.002017e+01
332 3 1 5.150145e+01 6.000716e+01 8.001103e+01
333 3 1 5.303282e+01 6.000918e+01 8.001570e+01
334 3 1 5.458535e+01 6.001485e+01 8.000209e+01
335 3 1 5.613097e+01 6.001115e+01 8.000031e+01
336 3 1 5.765699e+01 5.999679e+01 7.999516e+01
337 3 1 5.922449e+01 5.999107e+01 8.000793e+01
338 3 1 6.073199e+01 5.998081e+01 8.001688e+01
339 3 1 6.230280e+01 5.998956e+01 8.000887e+01
340 3 1 6.382130e+01 6.001025e+01 8.000784e+01
341 3 1 6.536002e+01 5.999436e+01 7.999597e+01
342 3 1 6.689135e+01 6.000576e+01 7.998642e+01
343 3 1 6.846911e+01 6.000368e+01 8.000345e+01
344 3 1 7.000372e+01 6.000092e+01 7.997894e+01
345 3 1 7.153764e+01 6.000256e+01 8.000237e+01
346 3 1 7.308126e+01 6.000410e+01 8.001126e+01
347 3 1 7.461084e+01 6.001434e+01 7.998412e+01
348 3 1 7.613535e+01 5.999223e+01 8.000403e+01
349 3 1 7.771072e+01 5.998167e+01 7.998386e+01
350 3 1 7.921670e+01 5.999747e+01 7.999997e+01
351 3 1 8.077731e+01 6.002088e+01 7.998569e+01
352 3 1 8.232250e+01 6.000906e+01 8.000748e+01
353 3 1 8.385622e+01 5.998824e+01 7.999533e+01
354 3 1 8.537859e+01 6.000966e+01 7.999849e+01
355 3 1 8.691841e+01 5.998378e+01 7.999413e+01
356 3 1 8.847972e+01 5.999802e+01 8.001396e+01
357 3 1 9.001607e+01 6.000359e+01 8.000610e+01
358 3 1 9.152936e+01 5.999416e+01 8.001311e+01
359 3 1 9.308195e+01 5.998014e+01 8.000461e+01
360 3 1 9.463699e+01 6.000544e+01 7.998436e+01
361 3 1 9.617003e+01 6.000263e+01 7.998378e+01
362 3 1 9.771681e+01 6.000577e+01 8.000164e+01
363 3 1 9.923645e+01 5.998117e+01 8.001021e+01
364 3 1 1.008056e+02 5.998461e+01 8.001140e+01
365 3 1 1.023451e+02 5.998895e+01 7.998709e+01
366 3 1 1.038758e+02 5.998080e+01 7.999577e+01
367 3 1 1.053923e+02 5.999718e+01 8.001384e+01
368 3 1 1.069334e+02 5.999712e+01 8.000648e+01
369 3 1 1.084917e+02 6.001263e+01 8.000072e+01
370 3 1 1.100280e+02 5.998784e+01 7.997925e+01
371 3 1 1.115868e+02 6.000319e+01 7.999565e+01
372 3 1 1.131186e+02 5.999931e+01 7.999806e+01
373 3 1 1.146618e+02 5.998308e+01 8.000729e+01
374 3 1 1.161973e+02 6.001413e+01 8.000008e+01
375 3 1 1.177361e+02 5.998823e+01 8.001653e+01
376 3 1 1.192869e+02 6.001145e+01 7.999005e+01
377 3 1 1.207981e+02 6.000420e+01 8.001759e+01
378 3 1 1.223362e+02 5.998322e+01 8.000450e+01
379 3 1 1.238974e+02 5.998170e+01 7.998079e+01
380 3 1 1.254341e+02 6.001248e+01 7.998438e+01
381 3 1 1.269662e+02 6.001640e+01 8.001997e+01
382 3 1 1.285019e+02 6.001972e+01 8.000948e+01
383 3 1 1.300458e+02 6.000312e+01 8.001057e+01
384 3 1 1.315938e+02 5.997933e+01 8.001671e+01
385 3 1 1.331401e+02 5.998873e+01 7.999359e+01
386 3 1 1.346572e+02 6.001582e+01 7.998642e+01
387 3 1 1.362252e+02 5.999838e+01 7.999557e+01
388 3 1 1.377374e+02 6.000394e+01 8.000992e+01
389 3 1 1.392769e+02 5.999904e+01 8.001166e+01
390 3 1 1.408231e+02 6.000633e+01 8.001141e+01
391 3 1 1.423608e+02 6.000337e+01 7.998924e+01
392 3 1 1.439022e+02 5.998148e+01 8.000381e+01
393 3 1 1.454569e+02 6.002048e+01 7.998766e+01
394 3 1 1.469748e+02 6.001284e+01 8.001160e+01
395 3 1 1.485169e+02 5.999030e+01 7.998871e+01
396 3 1 1.500509e+02 5.999802e+01 8.000700e+01
397 3 1 1.516099e+02 6.000718e+01 7.998401e+01
398 3 1 1.531544e+02 6.001574e+01 8.001714e+01
399 3 1 1.547000e+02 6.001067e+01 7.999698e+01
400 3 1 1.562353e+02 6.000406e+01 7.999094e+01
401 4 1 3.778868e+00 7.333109e+01 8.000204e+01
402 4 1 5.293081e+00 7.331715e+01 8.000247e+01
403 4 1 6.863483e+00 7.332426e+01 8.000085e+01
404 4 1 8.374954e+00 7.334424e+01 7.998172e+01
405 4 1 9.946851e+00 7.333738e+01 7.999695e+01
406 4 1 1.148811e+01 7.333527e+01 8.001344e+01
407 4 1 1.300158e+01 7.332618e+01 7.999940e+01
408 4 1 1.453157e+01 7.331538e+01 8.000406e+01
409 4 1 1.609979e+01 7.333152e+01 8.001286e+01
410 4 1 1.761351e+01 7.333582e+01 7.999323e+01
411 4 1 1.918182e+01 7.335107e+01 7.998756e+01
412 4 1 2.069201e+01 7.331741e+01 8.001041e+01
413 4 1 2.224255e+01 7.332615e+01 7.999033e+01
414 4 1 2.380367e+01 7.334505e+01 8.001242e+01
415 4 1 2.532193e+01 7.334101e+01 7.999106e+01
416 4 1 2.686798e+01 7.333697e+01 8.000731e+01
417 4 1 2.842814e+01 7.332265e+01 8.000185e+01
418 4 1 2.996842e+01 7.332047e+01 8.001314e+01
419 4 1 3.150026e+01 7.332371e+01 8.000558e+01
420 4 1 3.303031e+01 7.334779e+01 8.000301e+01
421 4 1 3.457918e+01 7.333088e+01 7.998564e+01
422 4 1 3.609306e+01 7.332487e+01 7.999658e+01
423 4 1 3.763159e+01 7.334770e+01 8.001256e+01
424 4 1 3.918607e+01 7.331322e+01 7.997916e+01
425 4 1 4.071780e+01 7.331875e+01 7.999634e+01
426 4 1 4.227457e+01 7.333532e+01 8.000139e+01
427 4 1 4.380106e+01 7.332117e+01 7.999155e+01
428 4 1 4.534836e+01 7.332429e+01 8.000500e+01
429 4 1 4.688021e+01 7.332401e+01 8.000859e+01
430 4 1 4.841746e+01 7.331678e+01 8.001859e+01
431 4 1 4.996218e+01 7.335146e+01 7.998327e+01
432 4 1 5.150536e+01 7.334324e+01 8.001476e+01
433 4 1 5.305670e+01 7.332169e+01 7.999200e+01
434 4 1 5.458782e+01 7.333619e+01 7.998157e+01
435 4 1 5.615071e+01 7.332841e+01 8.000491e+01
436 4 1 5.768008e+01 7.333477e+01 8.001100e+01
437 4 1 5.921282e+01 7.331344e+01 8.000487e+01
438 4 1 6.074947e+01 7.332342e+01 8.000865e+01
439 4 1 6.228537e+01 7.334768e+01 7.997945e+01
440 4 1 6.381039e+01 7.331890e+01 7.999460e+01
441 4 1 6.537476e+01 7.334969e+01 7.999089e+01
442 4 1 6.689121e+01 7.332479e+01 7.998605e+01
443 4 1 6.843631e+01 7.332908e+01 8.000000e+01
444 4 1 6.997057e+01 7.334977e+01 8.002023e+01
445 4 1 7.154418e+01 7.334295e+01 7.998263e+01
446 4 1 7.308772e+01 7.334409e+01 7.998480e+01
447 4 1 7.461995e+01 7.332607e+01 8.001841e+01
448 4 1 7.615082e+01 7.334896e+01 7.999957e+01
449 4 1 7.766956e+01 7.333059e+01 8.000960e+01
450 4 1 7.924784e+01 7.334757e+01 8.001950e+01
451 4 1 8.075093e+01 7.333611e+01 8.001141e+01
452 4 1 8.232028e+01 7.332767e+01 8.000941e+01
453 4 1 8.385458e+01 7.332633e+01 8.001816e+01
454 4 1 8.537672e+01 7.335108e+01 7.998915e+01
455 4 1 8.694494e+01 7.331446e+01 8.000615e+01
456 4 1 8.846378e+01 7.334119e+01 7.998987e+01
457 4 1 8.999987e+01 7.334847e+01 7.999678e+01
458 4 1 9.154711e+01 7.334785e+01 7.998695e+01
459 4 1 9.308678e+01 7.332214e+01 8.002037e+01
460 4 1 9.461275e+01 7.332749e+01 7.998520e+01
461 4 1 9.617383e+01 7.333057e+01 8.001401e+01
462 4 1 9.770051e+01 7.332067e+01 7.998557e+01
463 4 1 9.926152e+01 7.331731e+01 8.000527e+01
464 4 1 1.007978e+02 7.332090e+01 7.999765e+01
465 4 1 1.023344e+02 7.332554e+01 8.001387e+01
466 4 1 1.038824e+02 7.331478e+01 7.998737e+01
467 4 1 1.054228e+02 7.332201e+01 7.998010e+01
468 4 1 1.069649e+02 7.334161e+01 8.001649e+01
469 4 1 1.085109e+02 7.333190e+01 7.998000e+01
470 4 1 1.100433e+02 7.335029e+01 7.998038e+01
471 4 1 1.115674e+02 7.332865e+01 7.998630e+01
472 4 1 1.131226e+02 7.333370e+01 8.001355e+01
473 4 1 1.146645e+02 7.332462e+01 8.000606e+01
474 4 1 1.161762e+02 7.332169e+01 8.001425e+01
475 4 1 1.177355e+02 7.334495e+01 8.000630e+01
476 4 1 1.192865e+02 7.332851e+01 8.001671e+01
477 4 1 1.207914e+02 7.333270e+01 8.001082e+01
478 4 1 1.223456e+02 7.334800e+01 8.000795e+01
479 4 1 1.238872e+02 7.332064e+01 7.999757e+01
480 4 1 1.254137e+02 7.333492e+01 7.999643e+01
481 4 1 1.269750e+02 7.333497e+01 7.999229e+01
482 4 1 1.285033e+02 7.334370e+01 8.000574e+01
483 4 1 1.300676e+02 7.333114e+01 8.001189e+01
484 4 1 1.315893e+02 7.335259e+01 7.998811e+01
485 4 1 1.331220e+02 7.333305e+01 8.001302e+01
486 4 1 1.346521e+02 7.333241e+01 7.998517e+01
487 4 1 1.362191e+02 7.334530e+01 7.998790e+01
488 4 1 1.377654e+02 7.332813e+01 7.999600e+01
489 4 1 1.392996e+02 7.332716e+01 8.000807e+01
490 4 1 1.408249e+02 7.332153e+01 8.001840e+01
491 4 1 1.423642e+02 7.335345e+01 8.001477e+01
492 4 1 1.439083e+02 7.332514e+01 8.001428e+01
493 4 1 1.454389e+02 7.332690e+01 8.001836e+01
494 4 1 1.469919e+02 7.331838e+01 7.999825e+01
495 4 1 1.485276e+02 7.331495e+01 7.998203e+01
496 4 1 1.500560e+02 7.333474e+01 7.998297e+01
497 4 1 1.516085e+02 7.335023e+01 7.999532e+01
498 4 1 1.531684e+02 7.335006e+01 8.002023e+01
499 4 1 1.546900e+02 7.331580e+01 8.000606e+01
500 4 1 1.562504e+02 7.334579e+01 8.001338e+01
501 5 1 3.766555e+00 8.668392e+01 8.000558e+01
502 5 1 5.319588e+00 8.665371e+01 8.001314e+01
503 5 1 6.850205e+00 8.666375e+01 8.001253e+01
504 5 1 8.378749e+00 8.667467e+01 7.999211e+01
505 5 1 9.915250e+00 8.666235e+01 7.998956e+01
506 5 1 1.146144e+01 8.666996e+01 8.000037e+01
507 5 1 1.302977e+01 8.668394e+01 7.999356e+01
508 5 1 1.454114e+01 8.666091e+01 8.001277e+01
509 5 1 1.609702e+01 8.665795e+01 8.001968e+01
510 5 1 1.762633e+01 8.668098e+01 8.001479e+01
511 5 1 1.917594e+01 8.668140e+01 8.001993e+01
512 5 1 2.069705e+01 8.666058e+01 7.999507e+01
513 5 1 2.226951e+01 8.665043e+01 8.001196e+01
514 5 1 2.377401e+01 8.667243e+01 8.000430e+01
515 5 1 2.532595e+01 8.667229e+01 7.999141e+01
516 5 1 2.688526e+01 8.667251e+01 7.999883e+01
517 5 1 2.840295e+01 8.665636e+01 8.000090e+01
518 5 1 2.995492e+01 8.668743e+01 8.001694e+01
519 5 1 3.148657e+01 8.664754e+01 8.001024e+01
520 5 1 3.302402e+01 8.668491e+01 7.999330e+01
521 5 1 3.457674e+01 8.666764e+01 8.001755e+01
522 5 1 3.610923e+01 8.667412e+01 7.998152e+01
523 5 1 3.764743e+01 8.666416e+01 7.998608e+01
524 5 1 3.920628e+01 8.667637e+01 8.001083e+01
525 5 1 4.072442e+01 8.665374e+01 8.000146e+01
526 5 1 4.228484e+01 8.666831e+01 7.998731e+01
527 5 1 4.379192e+01 8.667974e+01 7.999983e+01
528 5 1 4.534549e+01 8.665214e+01 8.001227e+01
529 5 1 4.688617e+01 8.665940e+01 8.000342e+01
530 5 1 4.844972e+01 8.668247e+01 7.999507e+01
531 5 1 4.995472e+01 8.666953e+01 7.999509e+01
532 5 1 5.149699e+01 8.665493e+01 7.999265e+01
533 5 1 5.306326e+01 8.664610e+01 8.001978e+01
534 5 1 5.460266e+01 8.666343e+01 8.000070e+01
535 5 1 5.611798e+01 8.667352e+01 8.000114e+01
536 5 1 5.767400e+01 8.668317e+01 7.998792e+01
537 5 1 5.920641e+01 8.668629e+01 7.998300e+01
538 5 1 6.075656e+01 8.665987e+01 8.000633e+01
539 5 1 6.227871e+01 8.664768e+01 7.998302e+01
540 5 1 6.384754e+01 8.665931e+01 7.999718e+01
541 5 1 6.536674e+01 8.665182e+01 8.000323e+01
542 5 1 6.690942e+01 8.664617e+01 7.999967e+01
543 5 1 6.846546e+01 8.667222e+01 8.001598e+01
544 5 1 7.000941e+01 8.667481e+01 8.001508e+01
545 5 1 7.154204e+01 8.667280e+01 7.998761e+01
546 5 1 7.307065e+01 8.667492e+01 8.001480e+01
547 5 1 7.459769e+01 8.666064e+01 8.000565e+01
548 5 1 7.614457e+01 8.668696e+01 7.999785e+01
549 5 1 7.770145e+01 8.667529e+01 7.999059e+01
550 5 1 7.924192e+01 8.666827e+01 7.998613e+01
551 5 1 8.075872e+01 8.668110e+01 8.000539e+01
552 5 1 8.232722e+01 8.667474e+01 7.998372e+01
553 5 1 8.384909e+01 8.668513e+01 7.998268e+01
554 5 1 8.539413e+01 8.667294e+01 7.999306e+01
555 5 1 8.692215e+01 8.667028e+01 8.000568e+01
556 5 1 8.846170e+01 8.667233e+01 7.999153e+01
557 5 1 9.000672e+01 8.667179e+01 7.999696e+01
558 5 1 9.153438e+01 8.667193e+01 8.001094e+01
559 5 1 9.309782e+01 8.666857e+01 8.000818e+01
560 5 1 9.464680e+01 8.667721e+01 8.000291e+01
561 5 1 9.618458e+01 8.666569e+01 8.000522e+01
562 5 1 9.770867e+01 8.666274e+01 8.001810e+01
563 5 1 9.925078e+01 8.664915e+01 7.999838e+01
564 5 1 1.007846e+02 8.666108e+01 7.999886e+01
565 5 1 1.023384e+02 8.666575e+01 7.999336e+01
566 5 1 1.038653e+02 8.667189e+01 8.001454e+01
567 5 1 1.053943e+02 8.665275e+01 7.999609e+01
568 5 1 1.069531e+02 8.665968e+01 7.998486e+01
569 5 1 1.084798e+02 8.666155e+01 7.999466e+01
570 5 1 1.100349e+02 8.665095e+01 8.000009e+01
571 5 1 1.115585e+02 8.666163e+01 7.998351e+01
572 5 1 1.131287e+02 8.668192e+01 7.999850e+01
573 5 1 1.146503e+02 8.664658e+01 7.998491e+01
574 5 1 1.161718e+02 8.665772e+01 8.002037e+01
575 5 1 1.177217e+02 8.666413e+01 8.000444e+01
576 5 1 1.192826e+02 8.666850e+01 8.000089e+01
577 5 1 1.207931e+02 8.665719e+01 8.001244e+01
578 5 1 1.223518e+02 8.667764e+01 7.998074e+01
579 5 1 1.239041e+02 8.666730e+01 8.000404e+01
580 5 1 1.254321e+02 8.668513e+01 8.000409e+01
581 5 1 1.269842e+02 8.664959e+01 8.001395e+01
582 5 1 1.285082e+02 8.668360e+01 7.998387e+01
583 5 1 1.300543e+02 8.666886e+01 7.998634e+01
584 5 1 1.316018e+02 8.668484e+01 7.998029e+01
585 5 1 1.331110e+02 8.668391e+01 8.001694e+01
586 5 1 1.346513e+02 8.665446e+01 7.998415e+01
587 5 1 1.362206e+02 8.667005e+01 8.000414e+01
588 5 1 1.377580e+02 8.666572e+01 8.000996e+01
589 5 1 1.392782e+02 8.664823e+01 8.000790e+01
590 5 1 1.408140e+02 8.667799e+01 7.998514e+01
591 5 1 1.423777e+02 8.667185e+01 7.999530e+01
592 5 1 1.439021e+02 8.667292e+01 8.001692e+01
593 5 1 1.454426e+02 8.664765e+01 7.999696e+01
594 5 1 1.469937e+02 8.664626e+01 8.001297e+01
595 5 1 1.485225e+02 8.665371e+01 7.998582e+01
596 5 1 1.500615e+02 8.668023e+01 8.001488e+01
597 5 1 1.516145e+02 8.666230e+01 7.999234e+01
598 5 1 1.531645e+02 8.665437e+01 8.000134e+01
599 5 1 1.547088e+02 8.666393e+01 8.000691e+01
600 5 1 1.562307e+02 8.668444e+01 7.999065e+01
601 6 1 3.785760e+00 9.999394e+01 7.999550e+01
602 6 1 5.311322e+00 9.999710e+01 7.999612e+01
603 6 1 6.839860e+00 1.000095e+02 8.001228e+01
604 6 1 8.392464e+00 9.999306e+01 7.998615e+01
605 6 1 9.932961e+00 9.999179e+01 8.002014e+01
606 6 1 1.146990e+01 1.000003e+02 7.998621e+01
607 6 1 1.301001e+01 9.998351e+01 7.999266e+01
608 6 1 1.455988e+01 9.999773e+01 7.998996e+01
609 6 1 1.608282e+01 1.000185e+02 8.001231e+01
610 6 1 1.762154e+01 9.999126e+01 8.000302e+01
611 6 1 1.916450e+01 1.000013e+02 8.000060e+01
612 6 1 2.072621e+01 9.998015e+01 7.999808e+01
613 6 1 2.222960e+01 1.000081e+02 7.999120e+01
614 6 1 2.379828e+01 9.998531e+01 8.001671e+01
615 6 1 2.533846e+01 9.998050e+01 8.000861e+01
616 6 1 2.685508e+01 1.000200e+02 7.999066e+01
617 6 1 2.840267e+01 1.000046e+02 7.999852e+01
618 6 1 2.993922e+01 9.998381e+01 7.998470e+01
619 6 1 3.148059e+01 9.997913e+01 7.998799e+01
620 6 1 3.301889e+01 1.000177e+02 8.001221e+01
621 6 1 3.456660e+01 1.000200e+02 8.000330e+01
622 6 1 3.611062e+01 1.000068e+02 8.001405e+01
623 6 1 3.766362e+01 1.000041e+02 7.997940e+01
624 6 1 3.920444e+01 1.000029e+02 8.001501e+01
625 6 1 4.073747e+01 1.000165e+02 7.998342e+01
626 6 1 4.225418e+01 1.000047e+02 7.999683e+01
627 6 1 4.380853e+01 1.000179e+02 8.001683e+01
628 6 1 4.534859e+01 9.999446e+01 7.999908e+01
629 6 1 4.688823e+01 9.999985e+01 7.998862e+01
630 6 1 4.845041e+01 1.000143e+02 7.998477e+01
631 6 1 4.997826e+01 1.000022e+02 7.998393e+01
632 6 1 5.149123e+01 9.998149e+01 7.997983e+01
633 6 1 5.303509e+01 1.000154e+02 7.999663e+01
634 6 1 5.460319e+01 9.998671e+01 8.000131e+01
635 6 1 5.613465e+01 1.000047e+02 8.000732e+01